r 2.00519 /NodeList/0/DeviceList/0/$ns3::CsmaNetDevice/MacRx ns3::EthernetHeader ( length/type=0x806, source=00:00:00:00:00:03, destination=ff:ff:ff:ff:ff:ff) ns3::ArpHeader (request source mac: 00-06-00:00:00:00:00:03 source ipv4: 192.128.1.3 dest ipv4: 192.128.1.1) Payload (size=18) ns3::EthernetTrailer (fcs=0)
+ 2.00519 /NodeList/0/DeviceList/0/$ns3::CsmaNetDevice/TxQueue/Enqueue ns3::EthernetHeader ( length/type=0x806, source=00:00:00:00:00:01, destination=00:00:00:00:00:03) ns3::ArpHeader (reply source mac: 00-06-00:00:00:00:00:01 source ipv4: 192.128.1.1 dest mac: 00-06-00:00:00:00:00:03 dest ipv4: 192.128.1.3) Payload (size=18) ns3::EthernetTrailer (fcs=0)
- 2.00519 /NodeList/0/DeviceList/0/$ns3::CsmaNetDevice/TxQueue/Dequeue ns3::EthernetHeader ( length/type=0x806, source=00:00:00:00:00:01, destination=00:00:00:00:00:03) ns3::ArpHeader (reply source mac: 00-06-00:00:00:00:00:01 source ipv4: 192.128.1.1 dest mac: 00-06-00:00:00:00:00:03 dest ipv4: 192.128.1.3) Payload (size=18) ns3::EthernetTrailer (fcs=0)
r 2.00525 /NodeList/0/DeviceList/0/$ns3::CsmaNetDevice/MacRx ns3::EthernetHeader ( length/type=0x800, source=00:00:00:00:00:03, destination=00:00:00:00:00:01) ns3::Ipv4Header (tos 0x0 DSCP Default ECN Not-ECT ttl 60 id 0 protocol 6 offset (bytes) 0 flags [none] length: 56 192.128.2.2 > 192.128.1.1) ns3::TcpHeader (49153 > 7457 [SYN] Seq=0 Ack=0 Win=65535 ns3::TcpOptionTS(2000;0) ns3::TcpOptionWinScale(2) ns3::TcpOptionSackPermitted([sack_perm]) ns3::TcpOptionEnd(EOL)) ns3::EthernetTrailer (fcs=0)
+ 2.01425 /NodeList/0/DeviceList/0/$ns3::CsmaNetDevice/TxQueue/Enqueue ns3::EthernetHeader ( length/type=0x806, source=00:00:00:00:00:01, destination=ff:ff:ff:ff:ff:ff) ns3::ArpHeader (request source mac: 00-06-00:00:00:00:00:01 source ipv4: 192.128.1.1 dest ipv4: 192.128.1.3) Payload (size=18) ns3::EthernetTrailer (fcs=0)
- 2.01425 /NodeList/0/DeviceList/0/$ns3::CsmaNetDevice/TxQueue/Dequeue ns3::EthernetHeader ( length/type=0x806, source=00:00:00:00:00:01, destination=ff:ff:ff:ff:ff:ff) ns3::ArpHeader (request source mac: 00-06-00:00:00:00:00:01 source ipv4: 192.128.1.1 dest ipv4: 192.128.1.3) Payload (size=18) ns3::EthernetTrailer (fcs=0)
r 2.01432 /NodeList/0/DeviceList/0/$ns3::CsmaNetDevice/MacRx ns3::EthernetHeader ( length/type=0x806, source=00:00:00:00:00:03, destination=00:00:00:00:00:01) ns3::ArpHeader (reply source mac: 00-06-00:00:00:00:00:03 source ipv4: 192.128.1.3 dest mac: 00-06-00:00:00:00:00:01 dest ipv4: 192.128.1.1) Payload (size=18) ns3::EthernetTrailer (fcs=0)
+ 2.01432 /NodeList/0/DeviceList/0/$ns3::CsmaNetDevice/TxQueue/Enqueue ns3::EthernetHeader ( length/type=0x800, source=00:00:00:00:00:01, destination=00:00:00:00:00:03) ns3::Ipv4Header (tos 0x0 DSCP Default ECN Not-ECT ttl 64 id 0 protocol 6 offset (bytes) 0 flags [none] length: 56 192.128.1.1 > 192.128.2.2) ns3::TcpHeader (7457 > 49153 [SYN|ACK] Seq=0 Ack=1 Win=65535 ns3::TcpOptionTS(2005;2000) ns3::TcpOptionWinScale(2) ns3::TcpOptionSackPermitted([sack_perm]) ns3::TcpOptionEnd(EOL)) ns3::EthernetTrailer (fcs=0)
- 2.01432 /NodeList/0/DeviceList/0/$ns3::CsmaNetDevice/TxQueue/Dequeue ns3::EthernetHeader ( length/type=0x800, source=00:00:00:00:00:01, destination=00:00:00:00:00:03) ns3::Ipv4Header (tos 0x0 DSCP Default ECN Not-ECT ttl 64 id 0 protocol 6 offset (bytes) 0 flags [none] length: 56 192.128.1.1 > 192.128.2.2) ns3::TcpHeader (7457 > 49153 [SYN|ACK] Seq=0 Ack=1 Win=65535 ns3::TcpOptionTS(2005;2000) ns3::TcpOptionWinScale(2) ns3::TcpOptionSackPermitted([sack_perm]) ns3::TcpOptionEnd(EOL)) ns3::EthernetTrailer (fcs=0)
r 2.01462 /NodeList/0/DeviceList/0/$ns3::CsmaNetDevice/MacRx ns3::EthernetHeader ( length/type=0x800, source=00:00:00:00:00:03, destination=00:00:00:00:00:01) ns3::Ipv4Header (tos 0x0 DSCP Default ECN Not-ECT ttl 60 id 1 protocol 6 offset (bytes) 0 flags [none] length: 52 192.128.2.2 > 192.128.1.1) ns3::TcpHeader (49153 > 7457 [ACK] Seq=1 Ack=1 Win=32768 ns3::TcpOptionTS(2014;2005) ns3::TcpOptionEnd(EOL)) ns3::EthernetTrailer (fcs=0)
r 2.09508 /NodeList/0/DeviceList/0/$ns3::CsmaNetDevice/MacRx ns3::EthernetHeader ( length/type=0x800, source=00:00:00:00:00:03, destination=00:00:00:00:00:01) ns3::Ipv4Header (tos 0x0 DSCP Default ECN Not-ECT ttl 60 id 2 protocol 6 offset (bytes) 0 flags [none] length: 588 192.128.2.2 > 192.128.1.1) ns3::TcpHeader (49153 > 7457 [ACK] Seq=1 Ack=1 Win=32768 ns3::TcpOptionTS(2094;2005) ns3::TcpOptionEnd(EOL)) Payload Fragment [0:536] ns3::EthernetTrailer (fcs=0)
+ 2.09508 /NodeList/0/DeviceList/0/$ns3::CsmaNetDevice/TxQueue/Enqueue ns3::EthernetHeader ( length/type=0x800, source=00:00:00:00:00:01, destination=00:00:00:00:00:03) ns3::Ipv4Header (tos 0x0 DSCP Default ECN Not-ECT ttl 64 id 1 protocol 6 offset (bytes) 0 flags [none] length: 52 192.128.1.1 > 192.128.2.2) ns3::TcpHeader (7457 > 49153 [ACK] Seq=1 Ack=537 Win=32768 ns3::TcpOptionTS(2095;2094) ns3::TcpOptionEnd(EOL)) ns3::EthernetTrailer (fcs=0)
- 2.09508 /NodeList/0/DeviceList/0/$ns3::CsmaNetDevice/TxQueue/Dequeue ns3::EthernetHeader ( length/type=0x800, source=00:00:00:00:00:01, destination=00:00:00:00:00:03) ns3::Ipv4Header (tos 0x0 DSCP Default ECN Not-ECT ttl 64 id 1 protocol 6 offset (bytes) 0 flags [none] length: 52 192.128.1.1 > 192.128.2.2) ns3::TcpHeader (7457 > 49153 [ACK] Seq=1 Ack=537 Win=32768 ns3::TcpOptionTS(2095;2094) ns3::TcpOptionEnd(EOL)) ns3::EthernetTrailer (fcs=0)
r 2.09537 /NodeList/0/DeviceList/0/$ns3::CsmaNetDevice/MacRx ns3::EthernetHeader ( length/type=0x800, source=00:00:00:00:00:03, destination=00:00:00:00:00:01) ns3::Ipv4Header (tos 0x0 DSCP Default ECN Not-ECT ttl 60 id 3 protocol 6 offset (bytes) 0 flags [none] length: 588 192.128.2.2 > 192.128.1.1) ns3::TcpHeader (49153 > 7457 [ACK] Seq=537 Ack=1 Win=32768 ns3::TcpOptionTS(2094;2005) ns3::TcpOptionEnd(EOL)) Payload Fragment [536:1072] ns3::EthernetTrailer (fcs=0)
r 2.09558 /NodeList/0/DeviceList/0/$ns3::CsmaNetDevice/MacRx ns3::EthernetHeader ( length/type=0x800, source=00:00:00:00:00:03, destination=00:00:00:00:00:01) ns3::Ipv4Header (tos 0x0 DSCP Default ECN Not-ECT ttl 60 id 4 protocol 6 offset (bytes) 0 flags [none] length: 588 192.128.2.2 > 192.128.1.1) ns3::TcpHeader (49153 > 7457 [ACK] Seq=1073 Ack=1 Win=32768 ns3::TcpOptionTS(2094;2005) ns3::TcpOptionEnd(EOL)) Payload Fragment [1072:1608] ns3::EthernetTrailer (fcs=0)
+ 2.09558 /NodeList/0/DeviceList/0/$ns3::CsmaNetDevice/TxQueue/Enqueue ns3::EthernetHeader ( length/type=0x800, source=00:00:00:00:00:01, destination=00:00:00:00:00:03) ns3::Ipv4Header (tos 0x0 DSCP Default ECN Not-ECT ttl 64 id 2 protocol 6 offset (bytes) 0 flags [none] length: 52 192.128.1.1 > 192.128.2.2) ns3::TcpHeader (7457 > 49153 [ACK] Seq=1 Ack=1609 Win=32768 ns3::TcpOptionTS(2095;2094) ns3::TcpOptionEnd(EOL)) ns3::EthernetTrailer (fcs=0)
- 2.09558 /NodeList/0/DeviceList/0/$ns3::CsmaNetDevice/TxQueue/Dequeue ns3::EthernetHeader ( length/type=0x800, source=00:00:00:00:00:01, destination=00:00:00:00:00:03) ns3::Ipv4Header (tos 0x0 DSCP Default ECN Not-ECT ttl 64 id 2 protocol 6 offset (bytes) 0 flags [none] length: 52 192.128.1.1 > 192.128.2.2) ns3::TcpHeader (7457 > 49153 [ACK] Seq=1 Ack=1609 Win=32768 ns3::TcpOptionTS(2095;2094) ns3::TcpOptionEnd(EOL)) ns3::EthernetTrailer (fcs=0)
r 2.09583 /NodeList/0/DeviceList/0/$ns3::CsmaNetDevice/MacRx ns3::EthernetHeader ( length/type=0x800, source=00:00:00:00:00:03, destination=00:00:00:00:00:01) ns3::Ipv4Header (tos 0x0 DSCP Default ECN Not-ECT ttl 60 id 5 protocol 6 offset (bytes) 0 flags [none] length: 588 192.128.2.2 > 192.128.1.1) ns3::TcpHeader (49153 > 7457 [ACK] Seq=1609 Ack=1 Win=32768 ns3::TcpOptionTS(2094;2005) ns3::TcpOptionEnd(EOL)) Payload Fragment [1608:2144] ns3::EthernetTrailer (fcs=0)
r 2.09603 /NodeList/0/DeviceList/0/$ns3::CsmaNetDevice/MacRx ns3::EthernetHeader ( length/type=0x800, source=00:00:00:00:00:03, destination=00:00:00:00:00:01) ns3::Ipv4Header (tos 0x0 DSCP Default ECN Not-ECT ttl 60 id 6 protocol 6 offset (bytes) 0 flags [none] length: 588 192.128.2.2 > 192.128.1.1) ns3::TcpHeader (49153 > 7457 [ACK] Seq=2145 Ack=1 Win=32768 ns3::TcpOptionTS(2094;2005) ns3::TcpOptionEnd(EOL)) Payload Fragment [2144:2680] ns3::EthernetTrailer (fcs=0)
+ 2.09603 /NodeList/0/DeviceList/0/$ns3::CsmaNetDevice/TxQueue/Enqueue ns3::EthernetHeader ( length/type=0x800, source=00:00:00:00:00:01, destination=00:00:00:00:00:03) ns3::Ipv4Header (tos 0x0 DSCP Default ECN Not-ECT ttl 64 id 3 protocol 6 offset (bytes) 0 flags [none] length: 52 192.128.1.1 > 192.128.2.2) ns3::TcpHeader (7457 > 49153 [ACK] Seq=1 Ack=2681 Win=32768 ns3::TcpOptionTS(2096;2094) ns3::TcpOptionEnd(EOL)) ns3::EthernetTrailer (fcs=0)
- 2.09603 /NodeList/0/DeviceList/0/$ns3::CsmaNetDevice/TxQueue/Dequeue ns3::EthernetHeader ( length/type=0x800, source=00:00:00:00:00:01, destination=00:00:00:00:00:03) ns3::Ipv4Header (tos 0x0 DSCP Default ECN Not-ECT ttl 64 id 3 protocol 6 offset (bytes) 0 flags [none] length: 52 192.128.1.1 > 192.128.2.2) ns3::TcpHeader (7457 > 49153 [ACK] Seq=1 Ack=2681 Win=32768 ns3::TcpOptionTS(2096;2094) ns3::TcpOptionEnd(EOL)) ns3::EthernetTrailer (fcs=0)
r 2.09624 /NodeList/0/DeviceList/0/$ns3::CsmaNetDevice/MacRx ns3::EthernetHeader ( length/type=0x800, source=00:00:00:00:00:03, destination=00:00:00:00:00:01) ns3::Ipv4Header (tos 0x0 DSCP Default ECN Not-ECT ttl 60 id 7 protocol 6 offset (bytes) 0 flags [none] length: 588 192.128.2.2 > 192.128.1.1) ns3::TcpHeader (49153 > 7457 [ACK] Seq=2681 Ack=1 Win=32768 ns3::TcpOptionTS(2094;2005) ns3::TcpOptionEnd(EOL)) Payload Fragment [2680:3216] ns3::EthernetTrailer (fcs=0)
r 2.09644 /NodeList/0/DeviceList/0/$ns3::CsmaNetDevice/MacRx ns3::EthernetHeader ( length/type=0x800, source=00:00:00:00:00:03, destination=00:00:00:00:00:01) ns3::Ipv4Header (tos 0x0 DSCP Default ECN Not-ECT ttl 60 id 8 protocol 6 offset (bytes) 0 flags [none] length: 588 192.128.2.2 > 192.128.1.1) ns3::TcpHeader (49153 > 7457 [ACK] Seq=3217 Ack=1 Win=32768 ns3::TcpOptionTS(2094;2005) ns3::TcpOptionEnd(EOL)) Payload Fragment [3216:3752] ns3::EthernetTrailer (fcs=0)
+ 2.09644 /NodeList/0/DeviceList/0/$ns3::CsmaNetDevice/TxQueue/Enqueue ns3::EthernetHeader ( length/type=0x800, source=00:00:00:00:00:01, destination=00:00:00:00:00:03) ns3::Ipv4Header (tos 0x0 DSCP Default ECN Not-ECT ttl 64 id 4 protocol 6 offset (bytes) 0 flags [none] length: 52 192.128.1.1 > 192.128.2.2) ns3::TcpHeader (7457 > 49153 [ACK] Seq=1 Ack=3753 Win=32768 ns3::TcpOptionTS(2096;2094) ns3::TcpOptionEnd(EOL)) ns3::EthernetTrailer (fcs=0)
r 2.09665 /NodeList/0/DeviceList/0/$ns3::CsmaNetDevice/MacRx ns3::EthernetHeader ( length/type=0x800, source=00:00:00:00:00:03, destination=00:00:00:00:00:01) ns3::Ipv4Header (tos 0x0 DSCP Default ECN Not-ECT ttl 60 id 9 protocol 6 offset (bytes) 0 flags [none] length: 588 192.128.2.2 > 192.128.1.1) ns3::TcpHeader (49153 > 7457 [ACK] Seq=3753 Ack=1 Win=32768 ns3::TcpOptionTS(2094;2005) ns3::TcpOptionEnd(EOL)) Payload Fragment [3752:4288] ns3::EthernetTrailer (fcs=0)
r 2.09686 /NodeList/0/DeviceList/0/$ns3::CsmaNetDevice/MacRx ns3::EthernetHeader ( length/type=0x800, source=00:00:00:00:00:03, destination=00:00:00:00:00:01) ns3::Ipv4Header (tos 0x0 DSCP Default ECN Not-ECT ttl 60 id 10 protocol 6 offset (bytes) 0 flags [none] length: 588 192.128.2.2 > 192.128.1.1) ns3::TcpHeader (49153 > 7457 [ACK] Seq=4289 Ack=1 Win=32768 ns3::TcpOptionTS(2094;2005) ns3::TcpOptionEnd(EOL)) Payload Fragment [4288:4824] ns3::EthernetTrailer (fcs=0)
+ 2.09686 /NodeList/0/DeviceList/0/$ns3::CsmaNetDevice/TxQueue/Enqueue ns3::EthernetHeader ( length/type=0x800, source=00:00:00:00:00:01, destination=00:00:00:00:00:03) ns3::Ipv4Header (tos 0x0 DSCP Default ECN Not-ECT ttl 64 id 5 protocol 6 offset (bytes) 0 flags [none] length: 52 192.128.1.1 > 192.128.2.2) ns3::TcpHeader (7457 > 49153 [ACK] Seq=1 Ack=4825 Win=32768 ns3::TcpOptionTS(2096;2094) ns3::TcpOptionEnd(EOL)) ns3::EthernetTrailer (fcs=0)
r 2.09695 /NodeList/0/DeviceList/0/$ns3::CsmaNetDevice/MacRx ns3::EthernetHeader ( length/type=0x800, source=00:00:00:00:00:03, destination=00:00:00:00:00:01) ns3::Ipv4Header (tos 0x0 DSCP Default ECN Not-ECT ttl 60 id 11 protocol 6 offset (bytes) 0 flags [none] length: 228 192.128.2.2 > 192.128.1.1) ns3::TcpHeader (49153 > 7457 [ACK] Seq=4825 Ack=1 Win=32768 ns3::TcpOptionTS(2094;2005) ns3::TcpOptionEnd(EOL)) Payload Fragment [4824:5000] ns3::EthernetTrailer (fcs=0)
- 2.09735 /NodeList/0/DeviceList/0/$ns3::CsmaNetDevice/TxQueue/Dequeue ns3::EthernetHeader ( length/type=0x800, source=00:00:00:00:00:01, destination=00:00:00:00:00:03) ns3::Ipv4Header (tos 0x0 DSCP Default ECN Not-ECT ttl 64 id 4 protocol 6 offset (bytes) 0 flags [none] length: 52 192.128.1.1 > 192.128.2.2) ns3::TcpHeader (7457 > 49153 [ACK] Seq=1 Ack=3753 Win=32768 ns3::TcpOptionTS(2096;2094) ns3::TcpOptionEnd(EOL)) ns3::EthernetTrailer (fcs=0)
- 2.09738 /NodeList/0/DeviceList/0/$ns3::CsmaNetDevice/TxQueue/Dequeue ns3::EthernetHeader ( length/type=0x800, source=00:00:00:00:00:01, destination=00:00:00:00:00:03) ns3::Ipv4Header (tos 0x0 DSCP Default ECN Not-ECT ttl 64 id 5 protocol 6 offset (bytes) 0 flags [none] length: 52 192.128.1.1 > 192.128.2.2) ns3::TcpHeader (7457 > 49153 [ACK] Seq=1 Ack=4825 Win=32768 ns3::TcpOptionTS(2096;2094) ns3::TcpOptionEnd(EOL)) ns3::EthernetTrailer (fcs=0)
r 2.17508 /NodeList/0/DeviceList/0/$ns3::CsmaNetDevice/MacRx ns3::EthernetHeader ( length/type=0x800, source=00:00:00:00:00:03, destination=00:00:00:00:00:01) ns3::Ipv4Header (tos 0x0 DSCP Default ECN Not-ECT ttl 60 id 12 protocol 6 offset (bytes) 0 flags [none] length: 588 192.128.2.2 > 192.128.1.1) ns3::TcpHeader (49153 > 7457 [ACK] Seq=5001 Ack=1 Win=32768 ns3::TcpOptionTS(2174;2096) ns3::TcpOptionEnd(EOL)) Payload Fragment [0:536] ns3::EthernetTrailer (fcs=0)
+ 2.17508 /NodeList/0/DeviceList/0/$ns3::CsmaNetDevice/TxQueue/Enqueue ns3::EthernetHeader ( length/type=0x800, source=00:00:00:00:00:01, destination=00:00:00:00:00:03) ns3::Ipv4Header (tos 0x0 DSCP Default ECN Not-ECT ttl 64 id 6 protocol 6 offset (bytes) 0 flags [none] length: 52 192.128.1.1 > 192.128.2.2) ns3::TcpHeader (7457 > 49153 [ACK] Seq=1 Ack=5537 Win=32768 ns3::TcpOptionTS(2175;2094) ns3::TcpOptionEnd(EOL)) ns3::EthernetTrailer (fcs=0)
- 2.17508 /NodeList/0/DeviceList/0/$ns3::CsmaNetDevice/TxQueue/Dequeue ns3::EthernetHeader ( length/type=0x800, source=00:00:00:00:00:01, destination=00:00:00:00:00:03) ns3::Ipv4Header (tos 0x0 DSCP Default ECN Not-ECT ttl 64 id 6 protocol 6 offset (bytes) 0 flags [none] length: 52 192.128.1.1 > 192.128.2.2) ns3::TcpHeader (7457 > 49153 [ACK] Seq=1 Ack=5537 Win=32768 ns3::TcpOptionTS(2175;2094) ns3::TcpOptionEnd(EOL)) ns3::EthernetTrailer (fcs=0)
r 2.17533 /NodeList/0/DeviceList/0/$ns3::CsmaNetDevice/MacRx ns3::EthernetHeader ( length/type=0x800, source=00:00:00:00:00:03, destination=00:00:00:00:00:01) ns3::Ipv4Header (tos 0x0 DSCP Default ECN Not-ECT ttl 60 id 13 protocol 6 offset (bytes) 0 flags [none] length: 588 192.128.2.2 > 192.128.1.1) ns3::TcpHeader (49153 > 7457 [ACK] Seq=5537 Ack=1 Win=32768 ns3::TcpOptionTS(2174;2096) ns3::TcpOptionEnd(EOL)) Payload Fragment [536:1072] ns3::EthernetTrailer (fcs=0)
r 2.17553 /NodeList/0/DeviceList/0/$ns3::CsmaNetDevice/MacRx ns3::EthernetHeader ( length/type=0x800, source=00:00:00:00:00:03, destination=00:00:00:00:00:01) ns3::Ipv4Header (tos 0x0 DSCP Default ECN Not-ECT ttl 60 id 14 protocol 6 offset (bytes) 0 flags [none] length: 588 192.128.2.2 > 192.128.1.1) ns3::TcpHeader (49153 > 7457 [ACK] Seq=6073 Ack=1 Win=32768 ns3::TcpOptionTS(2174;2096) ns3::TcpOptionEnd(EOL)) Payload Fragment [1072:1608] ns3::EthernetTrailer (fcs=0)
+ 2.17553 /NodeList/0/DeviceList/0/$ns3::CsmaNetDevice/TxQueue/Enqueue ns3::EthernetHeader ( length/type=0x800, source=00:00:00:00:00:01, destination=00:00:00:00:00:03) ns3::Ipv4Header (tos 0x0 DSCP Default ECN Not-ECT ttl 64 id 7 protocol 6 offset (bytes) 0 flags [none] length: 52 192.128.1.1 > 192.128.2.2) ns3::TcpHeader (7457 > 49153 [ACK] Seq=1 Ack=6609 Win=32768 ns3::TcpOptionTS(2175;2174) ns3::TcpOptionEnd(EOL)) ns3::EthernetTrailer (fcs=0)
- 2.17553 /NodeList/0/DeviceList/0/$ns3::CsmaNetDevice/TxQueue/Dequeue ns3::EthernetHeader ( length/type=0x800, source=00:00:00:00:00:01, destination=00:00:00:00:00:03) ns3::Ipv4Header (tos 0x0 DSCP Default ECN Not-ECT ttl 64 id 7 protocol 6 offset (bytes) 0 flags [none] length: 52 192.128.1.1 > 192.128.2.2) ns3::TcpHeader (7457 > 49153 [ACK] Seq=1 Ack=6609 Win=32768 ns3::TcpOptionTS(2175;2174) ns3::TcpOptionEnd(EOL)) ns3::EthernetTrailer (fcs=0)
r 2.17574 /NodeList/0/DeviceList/0/$ns3::CsmaNetDevice/MacRx ns3::EthernetHeader ( length/type=0x800, source=00:00:00:00:00:03, destination=00:00:00:00:00:01) ns3::Ipv4Header (tos 0x0 DSCP Default ECN Not-ECT ttl 60 id 15 protocol 6 offset (bytes) 0 flags [none] length: 588 192.128.2.2 > 192.128.1.1) ns3::TcpHeader (49153 > 7457 [ACK] Seq=6609 Ack=1 Win=32768 ns3::TcpOptionTS(2174;2096) ns3::TcpOptionEnd(EOL)) Payload Fragment [1608:2144] ns3::EthernetTrailer (fcs=0)
r 2.17595 /NodeList/0/DeviceList/0/$ns3::CsmaNetDevice/MacRx ns3::EthernetHeader ( length/type=0x800, source=00:00:00:00:00:03, destination=00:00:00:00:00:01) ns3::Ipv4Header (tos 0x0 DSCP Default ECN Not-ECT ttl 60 id 16 protocol 6 offset (bytes) 0 flags [none] length: 588 192.128.2.2 > 192.128.1.1) ns3::TcpHeader (49153 > 7457 [ACK] Seq=7145 Ack=1 Win=32768 ns3::TcpOptionTS(2174;2096) ns3::TcpOptionEnd(EOL)) Payload Fragment [2144:2680] ns3::EthernetTrailer (fcs=0)
+ 2.17595 /NodeList/0/DeviceList/0/$ns3::CsmaNetDevice/TxQueue/Enqueue ns3::EthernetHeader ( length/type=0x800, source=00:00:00:00:00:01, destination=00:00:00:00:00:03) ns3::Ipv4Header (tos 0x0 DSCP Default ECN Not-ECT ttl 64 id 8 protocol 6 offset (bytes) 0 flags [none] length: 52 192.128.1.1 > 192.128.2.2) ns3::TcpHeader (7457 > 49153 [ACK] Seq=1 Ack=7681 Win=32768 ns3::TcpOptionTS(2175;2174) ns3::TcpOptionEnd(EOL)) ns3::EthernetTrailer (fcs=0)
r 2.17615 /NodeList/0/DeviceList/0/$ns3::CsmaNetDevice/MacRx ns3::EthernetHeader ( length/type=0x800, source=00:00:00:00:00:03, destination=00:00:00:00:00:01) ns3::Ipv4Header (tos 0x0 DSCP Default ECN Not-ECT ttl 60 id 17 protocol 6 offset (bytes) 0 flags [none] length: 588 192.128.2.2 > 192.128.1.1) ns3::TcpHeader (49153 > 7457 [ACK] Seq=7681 Ack=1 Win=32768 ns3::TcpOptionTS(2174;2096) ns3::TcpOptionEnd(EOL)) Payload Fragment [2680:3216] ns3::EthernetTrailer (fcs=0)
r 2.17636 /NodeList/0/DeviceList/0/$ns3::CsmaNetDevice/MacRx ns3::EthernetHeader ( length/type=0x800, source=00:00:00:00:00:03, destination=00:00:00:00:00:01) ns3::Ipv4Header (tos 0x0 DSCP Default ECN Not-ECT ttl 60 id 18 protocol 6 offset (bytes) 0 flags [none] length: 588 192.128.2.2 > 192.128.1.1) ns3::TcpHeader (49153 > 7457 [ACK] Seq=8217 Ack=1 Win=32768 ns3::TcpOptionTS(2174;2096) ns3::TcpOptionEnd(EOL)) Payload Fragment [3216:3752] ns3::EthernetTrailer (fcs=0)
+ 2.17636 /NodeList/0/DeviceList/0/$ns3::CsmaNetDevice/TxQueue/Enqueue ns3::EthernetHeader ( length/type=0x800, source=00:00:00:00:00:01, destination=00:00:00:00:00:03) ns3::Ipv4Header (tos 0x0 DSCP Default ECN Not-ECT ttl 64 id 9 protocol 6 offset (bytes) 0 flags [none] length: 52 192.128.1.1 > 192.128.2.2) ns3::TcpHeader (7457 > 49153 [ACK] Seq=1 Ack=8753 Win=32768 ns3::TcpOptionTS(2176;2174) ns3::TcpOptionEnd(EOL)) ns3::EthernetTrailer (fcs=0)
r 2.17659 /NodeList/0/DeviceList/0/$ns3::CsmaNetDevice/MacRx ns3::EthernetHeader ( length/type=0x800, source=00:00:00:00:00:03, destination=00:00:00:00:00:01) ns3::Ipv4Header (tos 0x0 DSCP Default ECN Not-ECT ttl 60 id 19 protocol 6 offset (bytes) 0 flags [none] length: 588 192.128.2.2 > 192.128.1.1) ns3::TcpHeader (49153 > 7457 [ACK] Seq=8753 Ack=1 Win=32768 ns3::TcpOptionTS(2174;2096) ns3::TcpOptionEnd(EOL)) Payload Fragment [3752:4288] ns3::EthernetTrailer (fcs=0)
r 2.1768 /NodeList/0/DeviceList/0/$ns3::CsmaNetDevice/MacRx ns3::EthernetHeader ( length/type=0x800, source=00:00:00:00:00:03, destination=00:00:00:00:00:01) ns3::Ipv4Header (tos 0x0 DSCP Default ECN Not-ECT ttl 60 id 20 protocol 6 offset (bytes) 0 flags [none] length: 588 192.128.2.2 > 192.128.1.1) ns3::TcpHeader (49153 > 7457 [ACK] Seq=9289 Ack=1 Win=32768 ns3::TcpOptionTS(2174;2096) ns3::TcpOptionEnd(EOL)) Payload Fragment [4288:4824] ns3::EthernetTrailer (fcs=0)
+ 2.1768 /NodeList/0/DeviceList/0/$ns3::CsmaNetDevice/TxQueue/Enqueue ns3::EthernetHeader ( length/type=0x800, source=00:00:00:00:00:01, destination=00:00:00:00:00:03) ns3::Ipv4Header (tos 0x0 DSCP Default ECN Not-ECT ttl 64 id 10 protocol 6 offset (bytes) 0 flags [none] length: 52 192.128.1.1 > 192.128.2.2) ns3::TcpHeader (7457 > 49153 [ACK] Seq=1 Ack=9825 Win=32768 ns3::TcpOptionTS(2176;2174) ns3::TcpOptionEnd(EOL)) ns3::EthernetTrailer (fcs=0)
r 2.17689 /NodeList/0/DeviceList/0/$ns3::CsmaNetDevice/MacRx ns3::EthernetHeader ( length/type=0x800, source=00:00:00:00:00:03, destination=00:00:00:00:00:01) ns3::Ipv4Header (tos 0x0 DSCP Default ECN Not-ECT ttl 60 id 21 protocol 6 offset (bytes) 0 flags [none] length: 228 192.128.2.2 > 192.128.1.1) ns3::TcpHeader (49153 > 7457 [ACK] Seq=9825 Ack=1 Win=32768 ns3::TcpOptionTS(2174;2096) ns3::TcpOptionEnd(EOL)) Payload Fragment [4824:5000] ns3::EthernetTrailer (fcs=0)
- 2.17701 /NodeList/0/DeviceList/0/$ns3::CsmaNetDevice/TxQueue/Dequeue ns3::EthernetHeader ( length/type=0x800, source=00:00:00:00:00:01, destination=00:00:00:00:00:03) ns3::Ipv4Header (tos 0x0 DSCP Default ECN Not-ECT ttl 64 id 8 protocol 6 offset (bytes) 0 flags [none] length: 52 192.128.1.1 > 192.128.2.2) ns3::TcpHeader (7457 > 49153 [ACK] Seq=1 Ack=7681 Win=32768 ns3::TcpOptionTS(2175;2174) ns3::TcpOptionEnd(EOL)) ns3::EthernetTrailer (fcs=0)
- 2.17706 /NodeList/0/DeviceList/0/$ns3::CsmaNetDevice/TxQueue/Dequeue ns3::EthernetHeader ( length/type=0x800, source=00:00:00:00:00:01, destination=00:00:00:00:00:03) ns3::Ipv4Header (tos 0x0 DSCP Default ECN Not-ECT ttl 64 id 9 protocol 6 offset (bytes) 0 flags [none] length: 52 192.128.1.1 > 192.128.2.2) ns3::TcpHeader (7457 > 49153 [ACK] Seq=1 Ack=8753 Win=32768 ns3::TcpOptionTS(2176;2174) ns3::TcpOptionEnd(EOL)) ns3::EthernetTrailer (fcs=0)
- 2.17709 /NodeList/0/DeviceList/0/$ns3::CsmaNetDevice/TxQueue/Dequeue ns3::EthernetHeader ( length/type=0x800, source=00:00:00:00:00:01, destination=00:00:00:00:00:03) ns3::Ipv4Header (tos 0x0 DSCP Default ECN Not-ECT ttl 64 id 10 protocol 6 offset (bytes) 0 flags [none] length: 52 192.128.1.1 > 192.128.2.2) ns3::TcpHeader (7457 > 49153 [ACK] Seq=1 Ack=9825 Win=32768 ns3::TcpOptionTS(2176;2174) ns3::TcpOptionEnd(EOL)) ns3::EthernetTrailer (fcs=0)
r 2.25508 /NodeList/0/DeviceList/0/$ns3::CsmaNetDevice/MacRx ns3::EthernetHeader ( length/type=0x800, source=00:00:00:00:00:03, destination=00:00:00:00:00:01) ns3::Ipv4Header (tos 0x0 DSCP Default ECN Not-ECT ttl 60 id 22 protocol 6 offset (bytes) 0 flags [none] length: 588 192.128.2.2 > 192.128.1.1) ns3::TcpHeader (49153 > 7457 [ACK] Seq=10001 Ack=1 Win=32768 ns3::TcpOptionTS(2254;2176) ns3::TcpOptionEnd(EOL)) Payload Fragment [0:536] ns3::EthernetTrailer (fcs=0)
+ 2.25508 /NodeList/0/DeviceList/0/$ns3::CsmaNetDevice/TxQueue/Enqueue ns3::EthernetHeader ( length/type=0x800, source=00:00:00:00:00:01, destination=00:00:00:00:00:03) ns3::Ipv4Header (tos 0x0 DSCP Default ECN Not-ECT ttl 64 id 11 protocol 6 offset (bytes) 0 flags [none] length: 52 192.128.1.1 > 192.128.2.2) ns3::TcpHeader (7457 > 49153 [ACK] Seq=1 Ack=10537 Win=32768 ns3::TcpOptionTS(2255;2174) ns3::TcpOptionEnd(EOL)) ns3::EthernetTrailer (fcs=0)
- 2.25508 /NodeList/0/DeviceList/0/$ns3::CsmaNetDevice/TxQueue/Dequeue ns3::EthernetHeader ( length/type=0x800, source=00:00:00:00:00:01, destination=00:00:00:00:00:03) ns3::Ipv4Header (tos 0x0 DSCP Default ECN Not-ECT ttl 64 id 11 protocol 6 offset (bytes) 0 flags [none] length: 52 192.128.1.1 > 192.128.2.2) ns3::TcpHeader (7457 > 49153 [ACK] Seq=1 Ack=10537 Win=32768 ns3::TcpOptionTS(2255;2174) ns3::TcpOptionEnd(EOL)) ns3::EthernetTrailer (fcs=0)
r 2.25535 /NodeList/0/DeviceList/0/$ns3::CsmaNetDevice/MacRx ns3::EthernetHeader ( length/type=0x800, source=00:00:00:00:00:03, destination=00:00:00:00:00:01) ns3::Ipv4Header (tos 0x0 DSCP Default ECN Not-ECT ttl 60 id 23 protocol 6 offset (bytes) 0 flags [none] length: 588 192.128.2.2 > 192.128.1.1) ns3::TcpHeader (49153 > 7457 [ACK] Seq=10537 Ack=1 Win=32768 ns3::TcpOptionTS(2254;2176) ns3::TcpOptionEnd(EOL)) Payload Fragment [536:1072] ns3::EthernetTrailer (fcs=0)
r 2.25556 /NodeList/0/DeviceList/0/$ns3::CsmaNetDevice/MacRx ns3::EthernetHeader ( length/type=0x800, source=00:00:00:00:00:03, destination=00:00:00:00:00:01) ns3::Ipv4Header (tos 0x0 DSCP Default ECN Not-ECT ttl 60 id 24 protocol 6 offset (bytes) 0 flags [none] length: 588 192.128.2.2 > 192.128.1.1) ns3::TcpHeader (49153 > 7457 [ACK] Seq=11073 Ack=1 Win=32768 ns3::TcpOptionTS(2254;2176) ns3::TcpOptionEnd(EOL)) Payload Fragment [1072:1608] ns3::EthernetTrailer (fcs=0)
+ 2.25556 /NodeList/0/DeviceList/0/$ns3::CsmaNetDevice/TxQueue/Enqueue ns3::EthernetHeader ( length/type=0x800, source=00:00:00:00:00:01, destination=00:00:00:00:00:03) ns3::Ipv4Header (tos 0x0 DSCP Default ECN Not-ECT ttl 64 id 12 protocol 6 offset (bytes) 0 flags [none] length: 52 192.128.1.1 > 192.128.2.2) ns3::TcpHeader (7457 > 49153 [ACK] Seq=1 Ack=11609 Win=32768 ns3::TcpOptionTS(2255;2254) ns3::TcpOptionEnd(EOL)) ns3::EthernetTrailer (fcs=0)
- 2.25556 /NodeList/0/DeviceList/0/$ns3::CsmaNetDevice/TxQueue/Dequeue ns3::EthernetHeader ( length/type=0x800, source=00:00:00:00:00:01, destination=00:00:00:00:00:03) ns3::Ipv4Header (tos 0x0 DSCP Default ECN Not-ECT ttl 64 id 12 protocol 6 offset (bytes) 0 flags [none] length: 52 192.128.1.1 > 192.128.2.2) ns3::TcpHeader (7457 > 49153 [ACK] Seq=1 Ack=11609 Win=32768 ns3::TcpOptionTS(2255;2254) ns3::TcpOptionEnd(EOL)) ns3::EthernetTrailer (fcs=0)
r 2.25583 /NodeList/0/DeviceList/0/$ns3::CsmaNetDevice/MacRx ns3::EthernetHeader ( length/type=0x800, source=00:00:00:00:00:03, destination=00:00:00:00:00:01) ns3::Ipv4Header (tos 0x0 DSCP Default ECN Not-ECT ttl 60 id 25 protocol 6 offset (bytes) 0 flags [none] length: 588 192.128.2.2 > 192.128.1.1) ns3::TcpHeader (49153 > 7457 [ACK] Seq=11609 Ack=1 Win=32768 ns3::TcpOptionTS(2254;2176) ns3::TcpOptionEnd(EOL)) Payload Fragment [1608:2144] ns3::EthernetTrailer (fcs=0)
r 2.25603 /NodeList/0/DeviceList/0/$ns3::CsmaNetDevice/MacRx ns3::EthernetHeader ( length/type=0x800, source=00:00:00:00:00:03, destination=00:00:00:00:00:01) ns3::Ipv4Header (tos 0x0 DSCP Default ECN Not-ECT ttl 60 id 26 protocol 6 offset (bytes) 0 flags [none] length: 588 192.128.2.2 > 192.128.1.1) ns3::TcpHeader (49153 > 7457 [ACK] Seq=12145 Ack=1 Win=32768 ns3::TcpOptionTS(2254;2176) ns3::TcpOptionEnd(EOL)) Payload Fragment [2144:2680] ns3::EthernetTrailer (fcs=0)
+ 2.25603 /NodeList/0/DeviceList/0/$ns3::CsmaNetDevice/TxQueue/Enqueue ns3::EthernetHeader ( length/type=0x800, source=00:00:00:00:00:01, destination=00:00:00:00:00:03) ns3::Ipv4Header (tos 0x0 DSCP Default ECN Not-ECT ttl 64 id 13 protocol 6 offset (bytes) 0 flags [none] length: 52 192.128.1.1 > 192.128.2.2) ns3::TcpHeader (7457 > 49153 [ACK] Seq=1 Ack=12681 Win=32768 ns3::TcpOptionTS(2256;2254) ns3::TcpOptionEnd(EOL)) ns3::EthernetTrailer (fcs=0)
- 2.25603 /NodeList/0/DeviceList/0/$ns3::CsmaNetDevice/TxQueue/Dequeue ns3::EthernetHeader ( length/type=0x800, source=00:00:00:00:00:01, destination=00:00:00:00:00:03) ns3::Ipv4Header (tos 0x0 DSCP Default ECN Not-ECT ttl 64 id 13 protocol 6 offset (bytes) 0 flags [none] length: 52 192.128.1.1 > 192.128.2.2) ns3::TcpHeader (7457 > 49153 [ACK] Seq=1 Ack=12681 Win=32768 ns3::TcpOptionTS(2256;2254) ns3::TcpOptionEnd(EOL)) ns3::EthernetTrailer (fcs=0)
r 2.25627 /NodeList/0/DeviceList/0/$ns3::CsmaNetDevice/MacRx ns3::EthernetHeader ( length/type=0x800, source=00:00:00:00:00:03, destination=00:00:00:00:00:01) ns3::Ipv4Header (tos 0x0 DSCP Default ECN Not-ECT ttl 60 id 27 protocol 6 offset (bytes) 0 flags [none] length: 588 192.128.2.2 > 192.128.1.1) ns3::TcpHeader (49153 > 7457 [ACK] Seq=12681 Ack=1 Win=32768 ns3::TcpOptionTS(2254;2176) ns3::TcpOptionEnd(EOL)) Payload Fragment [2680:3216] ns3::EthernetTrailer (fcs=0)
r 2.25648 /NodeList/0/DeviceList/0/$ns3::CsmaNetDevice/MacRx ns3::EthernetHeader ( length/type=0x800, source=00:00:00:00:00:03, destination=00:00:00:00:00:01) ns3::Ipv4Header (tos 0x0 DSCP Default ECN Not-ECT ttl 60 id 28 protocol 6 offset (bytes) 0 flags [none] length: 588 192.128.2.2 > 192.128.1.1) ns3::TcpHeader (49153 > 7457 [ACK] Seq=13217 Ack=1 Win=32768 ns3::TcpOptionTS(2254;2176) ns3::TcpOptionEnd(EOL)) Payload Fragment [3216:3752] ns3::EthernetTrailer (fcs=0)
+ 2.25648 /NodeList/0/DeviceList/0/$ns3::CsmaNetDevice/TxQueue/Enqueue ns3::EthernetHeader ( length/type=0x800, source=00:00:00:00:00:01, destination=00:00:00:00:00:03) ns3::Ipv4Header (tos 0x0 DSCP Default ECN Not-ECT ttl 64 id 14 protocol 6 offset (bytes) 0 flags [none] length: 52 192.128.1.1 > 192.128.2.2) ns3::TcpHeader (7457 > 49153 [ACK] Seq=1 Ack=13753 Win=32768 ns3::TcpOptionTS(2256;2254) ns3::TcpOptionEnd(EOL)) ns3::EthernetTrailer (fcs=0)
- 2.25648 /NodeList/0/DeviceList/0/$ns3::CsmaNetDevice/TxQueue/Dequeue ns3::EthernetHeader ( length/type=0x800, source=00:00:00:00:00:01, destination=00:00:00:00:00:03) ns3::Ipv4Header (tos 0x0 DSCP Default ECN Not-ECT ttl 64 id 14 protocol 6 offset (bytes) 0 flags [none] length: 52 192.128.1.1 > 192.128.2.2) ns3::TcpHeader (7457 > 49153 [ACK] Seq=1 Ack=13753 Win=32768 ns3::TcpOptionTS(2256;2254) ns3::TcpOptionEnd(EOL)) ns3::EthernetTrailer (fcs=0)
r 2.25672 /NodeList/0/DeviceList/0/$ns3::CsmaNetDevice/MacRx ns3::EthernetHeader ( length/type=0x800, source=00:00:00:00:00:03, destination=00:00:00:00:00:01) ns3::Ipv4Header (tos 0x0 DSCP Default ECN Not-ECT ttl 60 id 29 protocol 6 offset (bytes) 0 flags [none] length: 588 192.128.2.2 > 192.128.1.1) ns3::TcpHeader (49153 > 7457 [ACK] Seq=13753 Ack=1 Win=32768 ns3::TcpOptionTS(2254;2176) ns3::TcpOptionEnd(EOL)) Payload Fragment [3752:4288] ns3::EthernetTrailer (fcs=0)