+ 5.05187 /NodeList/2/DeviceList/0/$ns3::CsmaNetDevice/TxQueue/Enqueue ns3::EthernetHeader ( length/type=0x806, source=00:00:00:00:00:03, destination=ff:ff:ff:ff:ff:ff) ns3::ArpHeader (request source mac: 00-06-00:00:00:00:00:03 source ipv4: 192.128.1.3 dest ipv4: 192.128.1.1) Payload (size=18) ns3::EthernetTrailer (fcs=0)
- 5.05187 /NodeList/2/DeviceList/0/$ns3::CsmaNetDevice/TxQueue/Dequeue ns3::EthernetHeader ( length/type=0x806, source=00:00:00:00:00:03, destination=ff:ff:ff:ff:ff:ff) ns3::ArpHeader (request source mac: 00-06-00:00:00:00:00:03 source ipv4: 192.128.1.3 dest ipv4: 192.128.1.1) Payload (size=18) ns3::EthernetTrailer (fcs=0)
r 5.05193 /NodeList/2/DeviceList/0/$ns3::CsmaNetDevice/MacRx ns3::EthernetHeader ( length/type=0x806, source=00:00:00:00:00:01, destination=00:00:00:00:00:03) ns3::ArpHeader (reply source mac: 00-06-00:00:00:00:00:01 source ipv4: 192.128.1.1 dest mac: 00-06-00:00:00:00:00:03 dest ipv4: 192.128.1.3) Payload (size=18) ns3::EthernetTrailer (fcs=0)
+ 5.05193 /NodeList/2/DeviceList/0/$ns3::CsmaNetDevice/TxQueue/Enqueue ns3::EthernetHeader ( length/type=0x800, source=00:00:00:00:00:03, destination=00:00:00:00:00:01) ns3::Ipv4Header (tos 0x0 DSCP Default ECN Not-ECT ttl 60 id 0 protocol 17 offset (bytes) 0 flags [MF] length: 1500 192.128.2.2 > 192.128.1.1) ns3::UdpHeader (length: 3008 49154 > 7454) Payload Fragment [0:1472] ns3::EthernetTrailer (fcs=0)
- 5.05193 /NodeList/2/DeviceList/0/$ns3::CsmaNetDevice/TxQueue/Dequeue ns3::EthernetHeader ( length/type=0x800, source=00:00:00:00:00:03, destination=00:00:00:00:00:01) ns3::Ipv4Header (tos 0x0 DSCP Default ECN Not-ECT ttl 60 id 0 protocol 17 offset (bytes) 0 flags [MF] length: 1500 192.128.2.2 > 192.128.1.1) ns3::UdpHeader (length: 3008 49154 > 7454) Payload Fragment [0:1472] ns3::EthernetTrailer (fcs=0)
+ 5.05193 /NodeList/2/DeviceList/0/$ns3::CsmaNetDevice/TxQueue/Enqueue ns3::EthernetHeader ( length/type=0x800, source=00:00:00:00:00:03, destination=00:00:00:00:00:01) ns3::Ipv4Header (tos 0x0 DSCP Default ECN Not-ECT ttl 60 id 0 protocol 17 offset (bytes) 1480 flags [MF] length: 1500 192.128.2.2 > 192.128.1.1) Payload Fragment [1472:2952] ns3::EthernetTrailer (fcs=0)
+ 5.05193 /NodeList/2/DeviceList/0/$ns3::CsmaNetDevice/TxQueue/Enqueue ns3::EthernetHeader ( length/type=0x800, source=00:00:00:00:00:03, destination=00:00:00:00:00:01) ns3::Ipv4Header (tos 0x0 DSCP Default ECN Not-ECT ttl 60 id 0 protocol 17 offset (bytes) 2960 flags [none] length: 68 192.128.2.2 > 192.128.1.1) Payload Fragment [2952:3000] ns3::EthernetTrailer (fcs=0)
- 5.05242 /NodeList/2/DeviceList/0/$ns3::CsmaNetDevice/TxQueue/Dequeue ns3::EthernetHeader ( length/type=0x800, source=00:00:00:00:00:03, destination=00:00:00:00:00:01) ns3::Ipv4Header (tos 0x0 DSCP Default ECN Not-ECT ttl 60 id 0 protocol 17 offset (bytes) 1480 flags [MF] length: 1500 192.128.2.2 > 192.128.1.1) Payload Fragment [1472:2952] ns3::EthernetTrailer (fcs=0)
- 5.05293 /NodeList/2/DeviceList/0/$ns3::CsmaNetDevice/TxQueue/Dequeue ns3::EthernetHeader ( length/type=0x800, source=00:00:00:00:00:03, destination=00:00:00:00:00:01) ns3::Ipv4Header (tos 0x0 DSCP Default ECN Not-ECT ttl 60 id 0 protocol 17 offset (bytes) 2960 flags [none] length: 68 192.128.2.2 > 192.128.1.1) Payload Fragment [2952:3000] ns3::EthernetTrailer (fcs=0)
+ 5.09687 /NodeList/2/DeviceList/0/$ns3::CsmaNetDevice/TxQueue/Enqueue ns3::EthernetHeader ( length/type=0x800, source=00:00:00:00:00:03, destination=00:00:00:00:00:01) ns3::Ipv4Header (tos 0x0 DSCP Default ECN Not-ECT ttl 60 id 1 protocol 17 offset (bytes) 0 flags [MF] length: 1500 192.128.2.2 > 192.128.1.1) ns3::UdpHeader (length: 3008 49154 > 7454) Payload Fragment [0:1472] ns3::EthernetTrailer (fcs=0)
- 5.09687 /NodeList/2/DeviceList/0/$ns3::CsmaNetDevice/TxQueue/Dequeue ns3::EthernetHeader ( length/type=0x800, source=00:00:00:00:00:03, destination=00:00:00:00:00:01) ns3::Ipv4Header (tos 0x0 DSCP Default ECN Not-ECT ttl 60 id 1 protocol 17 offset (bytes) 0 flags [MF] length: 1500 192.128.2.2 > 192.128.1.1) ns3::UdpHeader (length: 3008 49154 > 7454) Payload Fragment [0:1472] ns3::EthernetTrailer (fcs=0)
+ 5.09732 /NodeList/2/DeviceList/0/$ns3::CsmaNetDevice/TxQueue/Enqueue ns3::EthernetHeader ( length/type=0x800, source=00:00:00:00:00:03, destination=00:00:00:00:00:01) ns3::Ipv4Header (tos 0x0 DSCP Default ECN Not-ECT ttl 60 id 1 protocol 17 offset (bytes) 1480 flags [MF] length: 1500 192.128.2.2 > 192.128.1.1) Payload Fragment [1472:2952] ns3::EthernetTrailer (fcs=0)
+ 5.09732 /NodeList/2/DeviceList/0/$ns3::CsmaNetDevice/TxQueue/Enqueue ns3::EthernetHeader ( length/type=0x800, source=00:00:00:00:00:03, destination=00:00:00:00:00:01) ns3::Ipv4Header (tos 0x0 DSCP Default ECN Not-ECT ttl 60 id 1 protocol 17 offset (bytes) 2960 flags [none] length: 68 192.128.2.2 > 192.128.1.1) Payload Fragment [2952:3000] ns3::EthernetTrailer (fcs=0)
- 5.09736 /NodeList/2/DeviceList/0/$ns3::CsmaNetDevice/TxQueue/Dequeue ns3::EthernetHeader ( length/type=0x800, source=00:00:00:00:00:03, destination=00:00:00:00:00:01) ns3::Ipv4Header (tos 0x0 DSCP Default ECN Not-ECT ttl 60 id 1 protocol 17 offset (bytes) 1480 flags [MF] length: 1500 192.128.2.2 > 192.128.1.1) Payload Fragment [1472:2952] ns3::EthernetTrailer (fcs=0)
- 5.09786 /NodeList/2/DeviceList/0/$ns3::CsmaNetDevice/TxQueue/Dequeue ns3::EthernetHeader ( length/type=0x800, source=00:00:00:00:00:03, destination=00:00:00:00:00:01) ns3::Ipv4Header (tos 0x0 DSCP Default ECN Not-ECT ttl 60 id 1 protocol 17 offset (bytes) 2960 flags [none] length: 68 192.128.2.2 > 192.128.1.1) Payload Fragment [2952:3000] ns3::EthernetTrailer (fcs=0)
+ 5.14487 /NodeList/2/DeviceList/0/$ns3::CsmaNetDevice/TxQueue/Enqueue ns3::EthernetHeader ( length/type=0x800, source=00:00:00:00:00:03, destination=00:00:00:00:00:01) ns3::Ipv4Header (tos 0x0 DSCP Default ECN Not-ECT ttl 60 id 2 protocol 17 offset (bytes) 0 flags [MF] length: 1500 192.128.2.2 > 192.128.1.1) ns3::UdpHeader (length: 3008 49154 > 7454) Payload Fragment [0:1472] ns3::EthernetTrailer (fcs=0)
- 5.14487 /NodeList/2/DeviceList/0/$ns3::CsmaNetDevice/TxQueue/Dequeue ns3::EthernetHeader ( length/type=0x800, source=00:00:00:00:00:03, destination=00:00:00:00:00:01) ns3::Ipv4Header (tos 0x0 DSCP Default ECN Not-ECT ttl 60 id 2 protocol 17 offset (bytes) 0 flags [MF] length: 1500 192.128.2.2 > 192.128.1.1) ns3::UdpHeader (length: 3008 49154 > 7454) Payload Fragment [0:1472] ns3::EthernetTrailer (fcs=0)
+ 5.1453 /NodeList/2/DeviceList/0/$ns3::CsmaNetDevice/TxQueue/Enqueue ns3::EthernetHeader ( length/type=0x800, source=00:00:00:00:00:03, destination=00:00:00:00:00:01) ns3::Ipv4Header (tos 0x0 DSCP Default ECN Not-ECT ttl 60 id 2 protocol 17 offset (bytes) 1480 flags [MF] length: 1500 192.128.2.2 > 192.128.1.1) Payload Fragment [1472:2952] ns3::EthernetTrailer (fcs=0)
+ 5.1453 /NodeList/2/DeviceList/0/$ns3::CsmaNetDevice/TxQueue/Enqueue ns3::EthernetHeader ( length/type=0x800, source=00:00:00:00:00:03, destination=00:00:00:00:00:01) ns3::Ipv4Header (tos 0x0 DSCP Default ECN Not-ECT ttl 60 id 2 protocol 17 offset (bytes) 2960 flags [none] length: 68 192.128.2.2 > 192.128.1.1) Payload Fragment [2952:3000] ns3::EthernetTrailer (fcs=0)
- 5.14536 /NodeList/2/DeviceList/0/$ns3::CsmaNetDevice/TxQueue/Dequeue ns3::EthernetHeader ( length/type=0x800, source=00:00:00:00:00:03, destination=00:00:00:00:00:01) ns3::Ipv4Header (tos 0x0 DSCP Default ECN Not-ECT ttl 60 id 2 protocol 17 offset (bytes) 1480 flags [MF] length: 1500 192.128.2.2 > 192.128.1.1) Payload Fragment [1472:2952] ns3::EthernetTrailer (fcs=0)
- 5.14586 /NodeList/2/DeviceList/0/$ns3::CsmaNetDevice/TxQueue/Dequeue ns3::EthernetHeader ( length/type=0x800, source=00:00:00:00:00:03, destination=00:00:00:00:00:01) ns3::Ipv4Header (tos 0x0 DSCP Default ECN Not-ECT ttl 60 id 2 protocol 17 offset (bytes) 2960 flags [none] length: 68 192.128.2.2 > 192.128.1.1) Payload Fragment [2952:3000] ns3::EthernetTrailer (fcs=0)
+ 5.19287 /NodeList/2/DeviceList/0/$ns3::CsmaNetDevice/TxQueue/Enqueue ns3::EthernetHeader ( length/type=0x800, source=00:00:00:00:00:03, destination=00:00:00:00:00:01) ns3::Ipv4Header (tos 0x0 DSCP Default ECN Not-ECT ttl 60 id 3 protocol 17 offset (bytes) 0 flags [MF] length: 1500 192.128.2.2 > 192.128.1.1) ns3::UdpHeader (length: 3008 49154 > 7454) Payload Fragment [0:1472] ns3::EthernetTrailer (fcs=0)
- 5.19287 /NodeList/2/DeviceList/0/$ns3::CsmaNetDevice/TxQueue/Dequeue ns3::EthernetHeader ( length/type=0x800, source=00:00:00:00:00:03, destination=00:00:00:00:00:01) ns3::Ipv4Header (tos 0x0 DSCP Default ECN Not-ECT ttl 60 id 3 protocol 17 offset (bytes) 0 flags [MF] length: 1500 192.128.2.2 > 192.128.1.1) ns3::UdpHeader (length: 3008 49154 > 7454) Payload Fragment [0:1472] ns3::EthernetTrailer (fcs=0)
+ 5.1933 /NodeList/2/DeviceList/0/$ns3::CsmaNetDevice/TxQueue/Enqueue ns3::EthernetHeader ( length/type=0x800, source=00:00:00:00:00:03, destination=00:00:00:00:00:01) ns3::Ipv4Header (tos 0x0 DSCP Default ECN Not-ECT ttl 60 id 3 protocol 17 offset (bytes) 1480 flags [MF] length: 1500 192.128.2.2 > 192.128.1.1) Payload Fragment [1472:2952] ns3::EthernetTrailer (fcs=0)
+ 5.1933 /NodeList/2/DeviceList/0/$ns3::CsmaNetDevice/TxQueue/Enqueue ns3::EthernetHeader ( length/type=0x800, source=00:00:00:00:00:03, destination=00:00:00:00:00:01) ns3::Ipv4Header (tos 0x0 DSCP Default ECN Not-ECT ttl 60 id 3 protocol 17 offset (bytes) 2960 flags [none] length: 68 192.128.2.2 > 192.128.1.1) Payload Fragment [2952:3000] ns3::EthernetTrailer (fcs=0)
- 5.19336 /NodeList/2/DeviceList/0/$ns3::CsmaNetDevice/TxQueue/Dequeue ns3::EthernetHeader ( length/type=0x800, source=00:00:00:00:00:03, destination=00:00:00:00:00:01) ns3::Ipv4Header (tos 0x0 DSCP Default ECN Not-ECT ttl 60 id 3 protocol 17 offset (bytes) 1480 flags [MF] length: 1500 192.128.2.2 > 192.128.1.1) Payload Fragment [1472:2952] ns3::EthernetTrailer (fcs=0)
- 5.19386 /NodeList/2/DeviceList/0/$ns3::CsmaNetDevice/TxQueue/Dequeue ns3::EthernetHeader ( length/type=0x800, source=00:00:00:00:00:03, destination=00:00:00:00:00:01) ns3::Ipv4Header (tos 0x0 DSCP Default ECN Not-ECT ttl 60 id 3 protocol 17 offset (bytes) 2960 flags [none] length: 68 192.128.2.2 > 192.128.1.1) Payload Fragment [2952:3000] ns3::EthernetTrailer (fcs=0)
+ 5.24087 /NodeList/2/DeviceList/0/$ns3::CsmaNetDevice/TxQueue/Enqueue ns3::EthernetHeader ( length/type=0x800, source=00:00:00:00:00:03, destination=00:00:00:00:00:01) ns3::Ipv4Header (tos 0x0 DSCP Default ECN Not-ECT ttl 60 id 4 protocol 17 offset (bytes) 0 flags [MF] length: 1500 192.128.2.2 > 192.128.1.1) ns3::UdpHeader (length: 3008 49154 > 7454) Payload Fragment [0:1472] ns3::EthernetTrailer (fcs=0)
- 5.24087 /NodeList/2/DeviceList/0/$ns3::CsmaNetDevice/TxQueue/Dequeue ns3::EthernetHeader ( length/type=0x800, source=00:00:00:00:00:03, destination=00:00:00:00:00:01) ns3::Ipv4Header (tos 0x0 DSCP Default ECN Not-ECT ttl 60 id 4 protocol 17 offset (bytes) 0 flags [MF] length: 1500 192.128.2.2 > 192.128.1.1) ns3::UdpHeader (length: 3008 49154 > 7454) Payload Fragment [0:1472] ns3::EthernetTrailer (fcs=0)
+ 5.24133 /NodeList/2/DeviceList/0/$ns3::CsmaNetDevice/TxQueue/Enqueue ns3::EthernetHeader ( length/type=0x800, source=00:00:00:00:00:03, destination=00:00:00:00:00:01) ns3::Ipv4Header (tos 0x0 DSCP Default ECN Not-ECT ttl 60 id 4 protocol 17 offset (bytes) 1480 flags [MF] length: 1500 192.128.2.2 > 192.128.1.1) Payload Fragment [1472:2952] ns3::EthernetTrailer (fcs=0)
+ 5.24134 /NodeList/2/DeviceList/0/$ns3::CsmaNetDevice/TxQueue/Enqueue ns3::EthernetHeader ( length/type=0x800, source=00:00:00:00:00:03, destination=00:00:00:00:00:01) ns3::Ipv4Header (tos 0x0 DSCP Default ECN Not-ECT ttl 60 id 4 protocol 17 offset (bytes) 2960 flags [none] length: 68 192.128.2.2 > 192.128.1.1) Payload Fragment [2952:3000] ns3::EthernetTrailer (fcs=0)
- 5.24136 /NodeList/2/DeviceList/0/$ns3::CsmaNetDevice/TxQueue/Dequeue ns3::EthernetHeader ( length/type=0x800, source=00:00:00:00:00:03, destination=00:00:00:00:00:01) ns3::Ipv4Header (tos 0x0 DSCP Default ECN Not-ECT ttl 60 id 4 protocol 17 offset (bytes) 1480 flags [MF] length: 1500 192.128.2.2 > 192.128.1.1) Payload Fragment [1472:2952] ns3::EthernetTrailer (fcs=0)
- 5.24186 /NodeList/2/DeviceList/0/$ns3::CsmaNetDevice/TxQueue/Dequeue ns3::EthernetHeader ( length/type=0x800, source=00:00:00:00:00:03, destination=00:00:00:00:00:01) ns3::Ipv4Header (tos 0x0 DSCP Default ECN Not-ECT ttl 60 id 4 protocol 17 offset (bytes) 2960 flags [none] length: 68 192.128.2.2 > 192.128.1.1) Payload Fragment [2952:3000] ns3::EthernetTrailer (fcs=0)
+ 5.28887 /NodeList/2/DeviceList/0/$ns3::CsmaNetDevice/TxQueue/Enqueue ns3::EthernetHeader ( length/type=0x800, source=00:00:00:00:00:03, destination=00:00:00:00:00:01) ns3::Ipv4Header (tos 0x0 DSCP Default ECN Not-ECT ttl 60 id 5 protocol 17 offset (bytes) 0 flags [MF] length: 1500 192.128.2.2 > 192.128.1.1) ns3::UdpHeader (length: 3008 49154 > 7454) Payload Fragment [0:1472] ns3::EthernetTrailer (fcs=0)
- 5.28887 /NodeList/2/DeviceList/0/$ns3::CsmaNetDevice/TxQueue/Dequeue ns3::EthernetHeader ( length/type=0x800, source=00:00:00:00:00:03, destination=00:00:00:00:00:01) ns3::Ipv4Header (tos 0x0 DSCP Default ECN Not-ECT ttl 60 id 5 protocol 17 offset (bytes) 0 flags [MF] length: 1500 192.128.2.2 > 192.128.1.1) ns3::UdpHeader (length: 3008 49154 > 7454) Payload Fragment [0:1472] ns3::EthernetTrailer (fcs=0)
+ 5.28932 /NodeList/2/DeviceList/0/$ns3::CsmaNetDevice/TxQueue/Enqueue ns3::EthernetHeader ( length/type=0x800, source=00:00:00:00:00:03, destination=00:00:00:00:00:01) ns3::Ipv4Header (tos 0x0 DSCP Default ECN Not-ECT ttl 60 id 5 protocol 17 offset (bytes) 1480 flags [MF] length: 1500 192.128.2.2 > 192.128.1.1) Payload Fragment [1472:2952] ns3::EthernetTrailer (fcs=0)
+ 5.28933 /NodeList/2/DeviceList/0/$ns3::CsmaNetDevice/TxQueue/Enqueue ns3::EthernetHeader ( length/type=0x800, source=00:00:00:00:00:03, destination=00:00:00:00:00:01) ns3::Ipv4Header (tos 0x0 DSCP Default ECN Not-ECT ttl 60 id 5 protocol 17 offset (bytes) 2960 flags [none] length: 68 192.128.2.2 > 192.128.1.1) Payload Fragment [2952:3000] ns3::EthernetTrailer (fcs=0)
- 5.28936 /NodeList/2/DeviceList/0/$ns3::CsmaNetDevice/TxQueue/Dequeue ns3::EthernetHeader ( length/type=0x800, source=00:00:00:00:00:03, destination=00:00:00:00:00:01) ns3::Ipv4Header (tos 0x0 DSCP Default ECN Not-ECT ttl 60 id 5 protocol 17 offset (bytes) 1480 flags [MF] length: 1500 192.128.2.2 > 192.128.1.1) Payload Fragment [1472:2952] ns3::EthernetTrailer (fcs=0)
- 5.28986 /NodeList/2/DeviceList/0/$ns3::CsmaNetDevice/TxQueue/Dequeue ns3::EthernetHeader ( length/type=0x800, source=00:00:00:00:00:03, destination=00:00:00:00:00:01) ns3::Ipv4Header (tos 0x0 DSCP Default ECN Not-ECT ttl 60 id 5 protocol 17 offset (bytes) 2960 flags [none] length: 68 192.128.2.2 > 192.128.1.1) Payload Fragment [2952:3000] ns3::EthernetTrailer (fcs=0)
+ 5.33687 /NodeList/2/DeviceList/0/$ns3::CsmaNetDevice/TxQueue/Enqueue ns3::EthernetHeader ( length/type=0x800, source=00:00:00:00:00:03, destination=00:00:00:00:00:01) ns3::Ipv4Header (tos 0x0 DSCP Default ECN Not-ECT ttl 60 id 6 protocol 17 offset (bytes) 0 flags [MF] length: 1500 192.128.2.2 > 192.128.1.1) ns3::UdpHeader (length: 3008 49154 > 7454) Payload Fragment [0:1472] ns3::EthernetTrailer (fcs=0)
- 5.33687 /NodeList/2/DeviceList/0/$ns3::CsmaNetDevice/TxQueue/Dequeue ns3::EthernetHeader ( length/type=0x800, source=00:00:00:00:00:03, destination=00:00:00:00:00:01) ns3::Ipv4Header (tos 0x0 DSCP Default ECN Not-ECT ttl 60 id 6 protocol 17 offset (bytes) 0 flags [MF] length: 1500 192.128.2.2 > 192.128.1.1) ns3::UdpHeader (length: 3008 49154 > 7454) Payload Fragment [0:1472] ns3::EthernetTrailer (fcs=0)
+ 5.3373 /NodeList/2/DeviceList/0/$ns3::CsmaNetDevice/TxQueue/Enqueue ns3::EthernetHeader ( length/type=0x800, source=00:00:00:00:00:03, destination=00:00:00:00:00:01) ns3::Ipv4Header (tos 0x0 DSCP Default ECN Not-ECT ttl 60 id 6 protocol 17 offset (bytes) 1480 flags [MF] length: 1500 192.128.2.2 > 192.128.1.1) Payload Fragment [1472:2952] ns3::EthernetTrailer (fcs=0)
+ 5.3373 /NodeList/2/DeviceList/0/$ns3::CsmaNetDevice/TxQueue/Enqueue ns3::EthernetHeader ( length/type=0x800, source=00:00:00:00:00:03, destination=00:00:00:00:00:01) ns3::Ipv4Header (tos 0x0 DSCP Default ECN Not-ECT ttl 60 id 6 protocol 17 offset (bytes) 2960 flags [none] length: 68 192.128.2.2 > 192.128.1.1) Payload Fragment [2952:3000] ns3::EthernetTrailer (fcs=0)
- 5.33736 /NodeList/2/DeviceList/0/$ns3::CsmaNetDevice/TxQueue/Dequeue ns3::EthernetHeader ( length/type=0x800, source=00:00:00:00:00:03, destination=00:00:00:00:00:01) ns3::Ipv4Header (tos 0x0 DSCP Default ECN Not-ECT ttl 60 id 6 protocol 17 offset (bytes) 1480 flags [MF] length: 1500 192.128.2.2 > 192.128.1.1) Payload Fragment [1472:2952] ns3::EthernetTrailer (fcs=0)
- 5.33786 /NodeList/2/DeviceList/0/$ns3::CsmaNetDevice/TxQueue/Dequeue ns3::EthernetHeader ( length/type=0x800, source=00:00:00:00:00:03, destination=00:00:00:00:00:01) ns3::Ipv4Header (tos 0x0 DSCP Default ECN Not-ECT ttl 60 id 6 protocol 17 offset (bytes) 2960 flags [none] length: 68 192.128.2.2 > 192.128.1.1) Payload Fragment [2952:3000] ns3::EthernetTrailer (fcs=0)
+ 5.38487 /NodeList/2/DeviceList/0/$ns3::CsmaNetDevice/TxQueue/Enqueue ns3::EthernetHeader ( length/type=0x800, source=00:00:00:00:00:03, destination=00:00:00:00:00:01) ns3::Ipv4Header (tos 0x0 DSCP Default ECN Not-ECT ttl 60 id 7 protocol 17 offset (bytes) 0 flags [MF] length: 1500 192.128.2.2 > 192.128.1.1) ns3::UdpHeader (length: 3008 49154 > 7454) Payload Fragment [0:1472] ns3::EthernetTrailer (fcs=0)
- 5.38487 /NodeList/2/DeviceList/0/$ns3::CsmaNetDevice/TxQueue/Dequeue ns3::EthernetHeader ( length/type=0x800, source=00:00:00:00:00:03, destination=00:00:00:00:00:01) ns3::Ipv4Header (tos 0x0 DSCP Default ECN Not-ECT ttl 60 id 7 protocol 17 offset (bytes) 0 flags [MF] length: 1500 192.128.2.2 > 192.128.1.1) ns3::UdpHeader (length: 3008 49154 > 7454) Payload Fragment [0:1472] ns3::EthernetTrailer (fcs=0)
+ 5.3853 /NodeList/2/DeviceList/0/$ns3::CsmaNetDevice/TxQueue/Enqueue ns3::EthernetHeader ( length/type=0x800, source=00:00:00:00:00:03, destination=00:00:00:00:00:01) ns3::Ipv4Header (tos 0x0 DSCP Default ECN Not-ECT ttl 60 id 7 protocol 17 offset (bytes) 1480 flags [MF] length: 1500 192.128.2.2 > 192.128.1.1) Payload Fragment [1472:2952] ns3::EthernetTrailer (fcs=0)
+ 5.38531 /NodeList/2/DeviceList/0/$ns3::CsmaNetDevice/TxQueue/Enqueue ns3::EthernetHeader ( length/type=0x800, source=00:00:00:00:00:03, destination=00:00:00:00:00:01) ns3::Ipv4Header (tos 0x0 DSCP Default ECN Not-ECT ttl 60 id 7 protocol 17 offset (bytes) 2960 flags [none] length: 68 192.128.2.2 > 192.128.1.1) Payload Fragment [2952:3000] ns3::EthernetTrailer (fcs=0)
- 5.38536 /NodeList/2/DeviceList/0/$ns3::CsmaNetDevice/TxQueue/Dequeue ns3::EthernetHeader ( length/type=0x800, source=00:00:00:00:00:03, destination=00:00:00:00:00:01) ns3::Ipv4Header (tos 0x0 DSCP Default ECN Not-ECT ttl 60 id 7 protocol 17 offset (bytes) 1480 flags [MF] length: 1500 192.128.2.2 > 192.128.1.1) Payload Fragment [1472:2952] ns3::EthernetTrailer (fcs=0)
- 5.38586 /NodeList/2/DeviceList/0/$ns3::CsmaNetDevice/TxQueue/Dequeue ns3::EthernetHeader ( length/type=0x800, source=00:00:00:00:00:03, destination=00:00:00:00:00:01) ns3::Ipv4Header (tos 0x0 DSCP Default ECN Not-ECT ttl 60 id 7 protocol 17 offset (bytes) 2960 flags [none] length: 68 192.128.2.2 > 192.128.1.1) Payload Fragment [2952:3000] ns3::EthernetTrailer (fcs=0)
+ 5.43287 /NodeList/2/DeviceList/0/$ns3::CsmaNetDevice/TxQueue/Enqueue ns3::EthernetHeader ( length/type=0x800, source=00:00:00:00:00:03, destination=00:00:00:00:00:01) ns3::Ipv4Header (tos 0x0 DSCP Default ECN Not-ECT ttl 60 id 8 protocol 17 offset (bytes) 0 flags [MF] length: 1500 192.128.2.2 > 192.128.1.1) ns3::UdpHeader (length: 3008 49154 > 7454) Payload Fragment [0:1472] ns3::EthernetTrailer (fcs=0)
- 5.43287 /NodeList/2/DeviceList/0/$ns3::CsmaNetDevice/TxQueue/Dequeue ns3::EthernetHeader ( length/type=0x800, source=00:00:00:00:00:03, destination=00:00:00:00:00:01) ns3::Ipv4Header (tos 0x0 DSCP Default ECN Not-ECT ttl 60 id 8 protocol 17 offset (bytes) 0 flags [MF] length: 1500 192.128.2.2 > 192.128.1.1) ns3::UdpHeader (length: 3008 49154 > 7454) Payload Fragment [0:1472] ns3::EthernetTrailer (fcs=0)
+ 5.4333 /NodeList/2/DeviceList/0/$ns3::CsmaNetDevice/TxQueue/Enqueue ns3::EthernetHeader ( length/type=0x800, source=00:00:00:00:00:03, destination=00:00:00:00:00:01) ns3::Ipv4Header (tos 0x0 DSCP Default ECN Not-ECT ttl 60 id 8 protocol 17 offset (bytes) 1480 flags [MF] length: 1500 192.128.2.2 > 192.128.1.1) Payload Fragment [1472:2952] ns3::EthernetTrailer (fcs=0)
+ 5.43331 /NodeList/2/DeviceList/0/$ns3::CsmaNetDevice/TxQueue/Enqueue ns3::EthernetHeader ( length/type=0x800, source=00:00:00:00:00:03, destination=00:00:00:00:00:01) ns3::Ipv4Header (tos 0x0 DSCP Default ECN Not-ECT ttl 60 id 8 protocol 17 offset (bytes) 2960 flags [none] length: 68 192.128.2.2 > 192.128.1.1) Payload Fragment [2952:3000] ns3::EthernetTrailer (fcs=0)
- 5.43336 /NodeList/2/DeviceList/0/$ns3::CsmaNetDevice/TxQueue/Dequeue ns3::EthernetHeader ( length/type=0x800, source=00:00:00:00:00:03, destination=00:00:00:00:00:01) ns3::Ipv4Header (tos 0x0 DSCP Default ECN Not-ECT ttl 60 id 8 protocol 17 offset (bytes) 1480 flags [MF] length: 1500 192.128.2.2 > 192.128.1.1) Payload Fragment [1472:2952] ns3::EthernetTrailer (fcs=0)
- 5.43388 /NodeList/2/DeviceList/0/$ns3::CsmaNetDevice/TxQueue/Dequeue ns3::EthernetHeader ( length/type=0x800, source=00:00:00:00:00:03, destination=00:00:00:00:00:01) ns3::Ipv4Header (tos 0x0 DSCP Default ECN Not-ECT ttl 60 id 8 protocol 17 offset (bytes) 2960 flags [none] length: 68 192.128.2.2 > 192.128.1.1) Payload Fragment [2952:3000] ns3::EthernetTrailer (fcs=0)
+ 5.48087 /NodeList/2/DeviceList/0/$ns3::CsmaNetDevice/TxQueue/Enqueue ns3::EthernetHeader ( length/type=0x800, source=00:00:00:00:00:03, destination=00:00:00:00:00:01) ns3::Ipv4Header (tos 0x0 DSCP Default ECN Not-ECT ttl 60 id 9 protocol 17 offset (bytes) 0 flags [MF] length: 1500 192.128.2.2 > 192.128.1.1) ns3::UdpHeader (length: 3008 49154 > 7454) Payload Fragment [0:1472] ns3::EthernetTrailer (fcs=0)
- 5.48087 /NodeList/2/DeviceList/0/$ns3::CsmaNetDevice/TxQueue/Dequeue ns3::EthernetHeader ( length/type=0x800, source=00:00:00:00:00:03, destination=00:00:00:00:00:01) ns3::Ipv4Header (tos 0x0 DSCP Default ECN Not-ECT ttl 60 id 9 protocol 17 offset (bytes) 0 flags [MF] length: 1500 192.128.2.2 > 192.128.1.1) ns3::UdpHeader (length: 3008 49154 > 7454) Payload Fragment [0:1472] ns3::EthernetTrailer (fcs=0)
+ 5.48131 /NodeList/2/DeviceList/0/$ns3::CsmaNetDevice/TxQueue/Enqueue ns3::EthernetHeader ( length/type=0x800, source=00:00:00:00:00:03, destination=00:00:00:00:00:01) ns3::Ipv4Header (tos 0x0 DSCP Default ECN Not-ECT ttl 60 id 9 protocol 17 offset (bytes) 1480 flags [MF] length: 1500 192.128.2.2 > 192.128.1.1) Payload Fragment [1472:2952] ns3::EthernetTrailer (fcs=0)
+ 5.48132 /NodeList/2/DeviceList/0/$ns3::CsmaNetDevice/TxQueue/Enqueue ns3::EthernetHeader ( length/type=0x800, source=00:00:00:00:00:03, destination=00:00:00:00:00:01) ns3::Ipv4Header (tos 0x0 DSCP Default ECN Not-ECT ttl 60 id 9 protocol 17 offset (bytes) 2960 flags [none] length: 68 192.128.2.2 > 192.128.1.1) Payload Fragment [2952:3000] ns3::EthernetTrailer (fcs=0)
- 5.48136 /NodeList/2/DeviceList/0/$ns3::CsmaNetDevice/TxQueue/Dequeue ns3::EthernetHeader ( length/type=0x800, source=00:00:00:00:00:03, destination=00:00:00:00:00:01) ns3::Ipv4Header (tos 0x0 DSCP Default ECN Not-ECT ttl 60 id 9 protocol 17 offset (bytes) 1480 flags [MF] length: 1500 192.128.2.2 > 192.128.1.1) Payload Fragment [1472:2952] ns3::EthernetTrailer (fcs=0)
- 5.48186 /NodeList/2/DeviceList/0/$ns3::CsmaNetDevice/TxQueue/Dequeue ns3::EthernetHeader ( length/type=0x800, source=00:00:00:00:00:03, destination=00:00:00:00:00:01) ns3::Ipv4Header (tos 0x0 DSCP Default ECN Not-ECT ttl 60 id 9 protocol 17 offset (bytes) 2960 flags [none] length: 68 192.128.2.2 > 192.128.1.1) Payload Fragment [2952:3000] ns3::EthernetTrailer (fcs=0)
+ 5.52887 /NodeList/2/DeviceList/0/$ns3::CsmaNetDevice/TxQueue/Enqueue ns3::EthernetHeader ( length/type=0x800, source=00:00:00:00:00:03, destination=00:00:00:00:00:01) ns3::Ipv4Header (tos 0x0 DSCP Default ECN Not-ECT ttl 60 id 10 protocol 17 offset (bytes) 0 flags [MF] length: 1500 192.128.2.2 > 192.128.1.1) ns3::UdpHeader (length: 3008 49154 > 7454) Payload Fragment [0:1472] ns3::EthernetTrailer (fcs=0)
- 5.52887 /NodeList/2/DeviceList/0/$ns3::CsmaNetDevice/TxQueue/Dequeue ns3::EthernetHeader ( length/type=0x800, source=00:00:00:00:00:03, destination=00:00:00:00:00:01) ns3::Ipv4Header (tos 0x0 DSCP Default ECN Not-ECT ttl 60 id 10 protocol 17 offset (bytes) 0 flags [MF] length: 1500 192.128.2.2 > 192.128.1.1) ns3::UdpHeader (length: 3008 49154 > 7454) Payload Fragment [0:1472] ns3::EthernetTrailer (fcs=0)
+ 5.5293 /NodeList/2/DeviceList/0/$ns3::CsmaNetDevice/TxQueue/Enqueue ns3::EthernetHeader ( length/type=0x800, source=00:00:00:00:00:03, destination=00:00:00:00:00:01) ns3::Ipv4Header (tos 0x0 DSCP Default ECN Not-ECT ttl 60 id 10 protocol 17 offset (bytes) 1480 flags [MF] length: 1500 192.128.2.2 > 192.128.1.1) Payload Fragment [1472:2952] ns3::EthernetTrailer (fcs=0)
+ 5.52931 /NodeList/2/DeviceList/0/$ns3::CsmaNetDevice/TxQueue/Enqueue ns3::EthernetHeader ( length/type=0x800, source=00:00:00:00:00:03, destination=00:00:00:00:00:01) ns3::Ipv4Header (tos 0x0 DSCP Default ECN Not-ECT ttl 60 id 10 protocol 17 offset (bytes) 2960 flags [none] length: 68 192.128.2.2 > 192.128.1.1) Payload Fragment [2952:3000] ns3::EthernetTrailer (fcs=0)
- 5.52936 /NodeList/2/DeviceList/0/$ns3::CsmaNetDevice/TxQueue/Dequeue ns3::EthernetHeader ( length/type=0x800, source=00:00:00:00:00:03, destination=00:00:00:00:00:01) ns3::Ipv4Header (tos 0x0 DSCP Default ECN Not-ECT ttl 60 id 10 protocol 17 offset (bytes) 1480 flags [MF] length: 1500 192.128.2.2 > 192.128.1.1) Payload Fragment [1472:2952] ns3::EthernetTrailer (fcs=0)
- 5.52986 /NodeList/2/DeviceList/0/$ns3::CsmaNetDevice/TxQueue/Dequeue ns3::EthernetHeader ( length/type=0x800, source=00:00:00:00:00:03, destination=00:00:00:00:00:01) ns3::Ipv4Header (tos 0x0 DSCP Default ECN Not-ECT ttl 60 id 10 protocol 17 offset (bytes) 2960 flags [none] length: 68 192.128.2.2 > 192.128.1.1) Payload Fragment [2952:3000] ns3::EthernetTrailer (fcs=0)
+ 5.57687 /NodeList/2/DeviceList/0/$ns3::CsmaNetDevice/TxQueue/Enqueue ns3::EthernetHeader ( length/type=0x800, source=00:00:00:00:00:03, destination=00:00:00:00:00:01) ns3::Ipv4Header (tos 0x0 DSCP Default ECN Not-ECT ttl 60 id 11 protocol 17 offset (bytes) 0 flags [MF] length: 1500 192.128.2.2 > 192.128.1.1) ns3::UdpHeader (length: 3008 49154 > 7454) Payload Fragment [0:1472] ns3::EthernetTrailer (fcs=0)
- 5.57687 /NodeList/2/DeviceList/0/$ns3::CsmaNetDevice/TxQueue/Dequeue ns3::EthernetHeader ( length/type=0x800, source=00:00:00:00:00:03, destination=00:00:00:00:00:01) ns3::Ipv4Header (tos 0x0 DSCP Default ECN Not-ECT ttl 60 id 11 protocol 17 offset (bytes) 0 flags [MF] length: 1500 192.128.2.2 > 192.128.1.1) ns3::UdpHeader (length: 3008 49154 > 7454) Payload Fragment [0:1472] ns3::EthernetTrailer (fcs=0)
+ 5.57731 /NodeList/2/DeviceList/0/$ns3::CsmaNetDevice/TxQueue/Enqueue ns3::EthernetHeader ( length/type=0x800, source=00:00:00:00:00:03, destination=00:00:00:00:00:01) ns3::Ipv4Header (tos 0x0 DSCP Default ECN Not-ECT ttl 60 id 11 protocol 17 offset (bytes) 1480 flags [MF] length: 1500 192.128.2.2 > 192.128.1.1) Payload Fragment [1472:2952] ns3::EthernetTrailer (fcs=0)
+ 5.57731 /NodeList/2/DeviceList/0/$ns3::CsmaNetDevice/TxQueue/Enqueue ns3::EthernetHeader ( length/type=0x800, source=00:00:00:00:00:03, destination=00:00:00:00:00:01) ns3::Ipv4Header (tos 0x0 DSCP Default ECN Not-ECT ttl 60 id 11 protocol 17 offset (bytes) 2960 flags [none] length: 68 192.128.2.2 > 192.128.1.1) Payload Fragment [2952:3000] ns3::EthernetTrailer (fcs=0)
- 5.57736 /NodeList/2/DeviceList/0/$ns3::CsmaNetDevice/TxQueue/Dequeue ns3::EthernetHeader ( length/type=0x800, source=00:00:00:00:00:03, destination=00:00:00:00:00:01) ns3::Ipv4Header (tos 0x0 DSCP Default ECN Not-ECT ttl 60 id 11 protocol 17 offset (bytes) 1480 flags [MF] length: 1500 192.128.2.2 > 192.128.1.1) Payload Fragment [1472:2952] ns3::EthernetTrailer (fcs=0)
- 5.57787 /NodeList/2/DeviceList/0/$ns3::CsmaNetDevice/TxQueue/Dequeue ns3::EthernetHeader ( length/type=0x800, source=00:00:00:00:00:03, destination=00:00:00:00:00:01) ns3::Ipv4Header (tos 0x0 DSCP Default ECN Not-ECT ttl 60 id 11 protocol 17 offset (bytes) 2960 flags [none] length: 68 192.128.2.2 > 192.128.1.1) Payload Fragment [2952:3000] ns3::EthernetTrailer (fcs=0)
+ 5.62487 /NodeList/2/DeviceList/0/$ns3::CsmaNetDevice/TxQueue/Enqueue ns3::EthernetHeader ( length/type=0x800, source=00:00:00:00:00:03, destination=00:00:00:00:00:01) ns3::Ipv4Header (tos 0x0 DSCP Default ECN Not-ECT ttl 60 id 12 protocol 17 offset (bytes) 0 flags [MF] length: 1500 192.128.2.2 > 192.128.1.1) ns3::UdpHeader (length: 3008 49154 > 7454) Payload Fragment [0:1472] ns3::EthernetTrailer (fcs=0)
- 5.62487 /NodeList/2/DeviceList/0/$ns3::CsmaNetDevice/TxQueue/Dequeue ns3::EthernetHeader ( length/type=0x800, source=00:00:00:00:00:03, destination=00:00:00:00:00:01) ns3::Ipv4Header (tos 0x0 DSCP Default ECN Not-ECT ttl 60 id 12 protocol 17 offset (bytes) 0 flags [MF] length: 1500 192.128.2.2 > 192.128.1.1) ns3::UdpHeader (length: 3008 49154 > 7454) Payload Fragment [0:1472] ns3::EthernetTrailer (fcs=0)
+ 5.6253 /NodeList/2/DeviceList/0/$ns3::CsmaNetDevice/TxQueue/Enqueue ns3::EthernetHeader ( length/type=0x800, source=00:00:00:00:00:03, destination=00:00:00:00:00:01) ns3::Ipv4Header (tos 0x0 DSCP Default ECN Not-ECT ttl 60 id 12 protocol 17 offset (bytes) 1480 flags [MF] length: 1500 192.128.2.2 > 192.128.1.1) Payload Fragment [1472:2952] ns3::EthernetTrailer (fcs=0)