r 0.00203707 /NodeList/6/DeviceList/4/$ns3::CsmaNetDevice/MacRx ns3::EthernetHeader ( length/type=0x806, source=00:00:00:00:00:17, destination=ff:ff:ff:ff:ff:ff) ns3::ArpHeader (request source mac: 00-06-00:00:00:00:00:17 source ipv4: 192.128.2.2 dest ipv4: 192.128.2.3) Payload (size=18) ns3::EthernetTrailer (fcs=0)
+ 0.00203707 /NodeList/6/DeviceList/4/$ns3::CsmaNetDevice/TxQueue/Enqueue ns3::EthernetHeader ( length/type=0x806, source=00:00:00:00:00:18, destination=00:00:00:00:00:17) ns3::ArpHeader (reply source mac: 00-06-00:00:00:00:00:18 source ipv4: 192.128.2.3 dest mac: 00-06-00:00:00:00:00:17 dest ipv4: 192.128.2.2) Payload (size=18) ns3::EthernetTrailer (fcs=0)
- 0.00203707 /NodeList/6/DeviceList/4/$ns3::CsmaNetDevice/TxQueue/Dequeue ns3::EthernetHeader ( length/type=0x806, source=00:00:00:00:00:18, destination=00:00:00:00:00:17) ns3::ArpHeader (reply source mac: 00-06-00:00:00:00:00:18 source ipv4: 192.128.2.3 dest mac: 00-06-00:00:00:00:00:17 dest ipv4: 192.128.2.2) Payload (size=18) ns3::EthernetTrailer (fcs=0)
r 0.0021132 /NodeList/6/DeviceList/4/$ns3::CsmaNetDevice/MacRx ns3::EthernetHeader ( length/type=0x800, source=00:00:00:00:00:17, destination=00:00:00:00:00:18) ns3::Ipv4Header (tos 0x0 DSCP Default ECN Not-ECT ttl 64 id 0 protocol 17 offset (bytes) 0 flags [none] length: 34 192.128.2.2 > 192.128.1.3) ns3::UdpHeader (length: 14 49153 > 63) Payload (size=6) Payload (size=12) ns3::EthernetTrailer (fcs=0)
+ 0.00218952 /NodeList/6/DeviceList/4/$ns3::CsmaNetDevice/TxQueue/Enqueue ns3::EthernetHeader ( length/type=0x806, source=00:00:00:00:00:18, destination=ff:ff:ff:ff:ff:ff) ns3::ArpHeader (request source mac: 00-06-00:00:00:00:00:18 source ipv4: 192.128.2.3 dest ipv4: 192.128.2.2) Payload (size=18) ns3::EthernetTrailer (fcs=0)
- 0.00218952 /NodeList/6/DeviceList/4/$ns3::CsmaNetDevice/TxQueue/Dequeue ns3::EthernetHeader ( length/type=0x806, source=00:00:00:00:00:18, destination=ff:ff:ff:ff:ff:ff) ns3::ArpHeader (request source mac: 00-06-00:00:00:00:00:18 source ipv4: 192.128.2.3 dest ipv4: 192.128.2.2) Payload (size=18) ns3::EthernetTrailer (fcs=0)
r 0.00226465 /NodeList/6/DeviceList/4/$ns3::CsmaNetDevice/MacRx ns3::EthernetHeader ( length/type=0x806, source=00:00:00:00:00:17, destination=00:00:00:00:00:18) ns3::ArpHeader (reply source mac: 00-06-00:00:00:00:00:17 source ipv4: 192.128.2.2 dest mac: 00-06-00:00:00:00:00:18 dest ipv4: 192.128.2.3) Payload (size=18) ns3::EthernetTrailer (fcs=0)
+ 0.00226465 /NodeList/6/DeviceList/4/$ns3::CsmaNetDevice/TxQueue/Enqueue ns3::EthernetHeader ( length/type=0x800, source=00:00:00:00:00:18, destination=00:00:00:00:00:17) ns3::Ipv4Header (tos 0x0 DSCP Default ECN Not-ECT ttl 61 id 0 protocol 1 offset (bytes) 0 flags [none] length: 56 10.1.1.1 > 192.128.2.2) ns3::Icmpv4Header (type=3, code=3) ns3::Icmpv4DestinationUnreachable (tos 0x0 DSCP Default ECN Not-ECT ttl 61 id 0 protocol 17 offset (bytes) 0 flags [none] length: 34 192.128.2.2 > 192.128.1.3 org data=192 1 0 63 0 14 0 0 ) ns3::EthernetTrailer (fcs=0)
- 0.00226465 /NodeList/6/DeviceList/4/$ns3::CsmaNetDevice/TxQueue/Dequeue ns3::EthernetHeader ( length/type=0x800, source=00:00:00:00:00:18, destination=00:00:00:00:00:17) ns3::Ipv4Header (tos 0x0 DSCP Default ECN Not-ECT ttl 61 id 0 protocol 1 offset (bytes) 0 flags [none] length: 56 10.1.1.1 > 192.128.2.2) ns3::Icmpv4Header (type=3, code=3) ns3::Icmpv4DestinationUnreachable (tos 0x0 DSCP Default ECN Not-ECT ttl 61 id 0 protocol 17 offset (bytes) 0 flags [none] length: 34 192.128.2.2 > 192.128.1.3 org data=192 1 0 63 0 14 0 0 ) ns3::EthernetTrailer (fcs=0)
r 2.00004 /NodeList/6/DeviceList/4/$ns3::CsmaNetDevice/MacRx ns3::EthernetHeader ( length/type=0x800, source=00:00:00:00:00:17, destination=00:00:00:00:00:18) ns3::Ipv4Header (tos 0x0 DSCP Default ECN Not-ECT ttl 64 id 1 protocol 17 offset (bytes) 0 flags [none] length: 34 192.128.2.2 > 192.128.1.3) ns3::UdpHeader (length: 14 49153 > 63) Payload (size=6) Payload (size=12) ns3::EthernetTrailer (fcs=0)
+ 2.00011 /NodeList/6/DeviceList/4/$ns3::CsmaNetDevice/TxQueue/Enqueue ns3::EthernetHeader ( length/type=0x800, source=00:00:00:00:00:18, destination=00:00:00:00:00:17) ns3::Ipv4Header (tos 0x0 DSCP Default ECN Not-ECT ttl 61 id 0 protocol 17 offset (bytes) 0 flags [none] length: 34 10.1.1.1 > 192.128.2.2) ns3::UdpHeader (length: 14 63 > 49153) Payload (size=6) Payload (size=12) ns3::EthernetTrailer (fcs=0)
- 2.00011 /NodeList/6/DeviceList/4/$ns3::CsmaNetDevice/TxQueue/Dequeue ns3::EthernetHeader ( length/type=0x800, source=00:00:00:00:00:18, destination=00:00:00:00:00:17) ns3::Ipv4Header (tos 0x0 DSCP Default ECN Not-ECT ttl 61 id 0 protocol 17 offset (bytes) 0 flags [none] length: 34 10.1.1.1 > 192.128.2.2) ns3::UdpHeader (length: 14 63 > 49153) Payload (size=6) Payload (size=12) ns3::EthernetTrailer (fcs=0)
r 4.00004 /NodeList/6/DeviceList/4/$ns3::CsmaNetDevice/MacRx ns3::EthernetHeader ( length/type=0x800, source=00:00:00:00:00:17, destination=00:00:00:00:00:18) ns3::Ipv4Header (tos 0x0 DSCP Default ECN Not-ECT ttl 64 id 2 protocol 17 offset (bytes) 0 flags [none] length: 34 192.128.2.2 > 192.128.1.3) ns3::UdpHeader (length: 14 49153 > 63) Payload (size=6) Payload (size=12) ns3::EthernetTrailer (fcs=0)
+ 4.00011 /NodeList/6/DeviceList/4/$ns3::CsmaNetDevice/TxQueue/Enqueue ns3::EthernetHeader ( length/type=0x800, source=00:00:00:00:00:18, destination=00:00:00:00:00:17) ns3::Ipv4Header (tos 0x0 DSCP Default ECN Not-ECT ttl 61 id 1 protocol 17 offset (bytes) 0 flags [none] length: 34 10.1.1.1 > 192.128.2.2) ns3::UdpHeader (length: 14 63 > 49153) Payload (size=6) Payload (size=12) ns3::EthernetTrailer (fcs=0)
- 4.00011 /NodeList/6/DeviceList/4/$ns3::CsmaNetDevice/TxQueue/Dequeue ns3::EthernetHeader ( length/type=0x800, source=00:00:00:00:00:18, destination=00:00:00:00:00:17) ns3::Ipv4Header (tos 0x0 DSCP Default ECN Not-ECT ttl 61 id 1 protocol 17 offset (bytes) 0 flags [none] length: 34 10.1.1.1 > 192.128.2.2) ns3::UdpHeader (length: 14 63 > 49153) Payload (size=6) Payload (size=12) ns3::EthernetTrailer (fcs=0)
r 5.04842 /NodeList/6/DeviceList/4/$ns3::CsmaNetDevice/MacRx ns3::EthernetHeader ( length/type=0x800, source=00:00:00:00:00:17, destination=00:00:00:00:00:18) ns3::Ipv4Header (tos 0x0 DSCP Default ECN Not-ECT ttl 64 id 0 protocol 17 offset (bytes) 0 flags [MF] length: 1500 192.128.2.2 > 192.128.1.1) ns3::UdpHeader (length: 3008 49154 > 7454) Payload Fragment [0:1472] ns3::EthernetTrailer (fcs=0)
r 5.04885 /NodeList/6/DeviceList/4/$ns3::CsmaNetDevice/MacRx ns3::EthernetHeader ( length/type=0x800, source=00:00:00:00:00:17, destination=00:00:00:00:00:18) ns3::Ipv4Header (tos 0x0 DSCP Default ECN Not-ECT ttl 64 id 0 protocol 17 offset (bytes) 1480 flags [MF] length: 1500 192.128.2.2 > 192.128.1.1) Payload Fragment [1472:2952] ns3::EthernetTrailer (fcs=0)
r 5.0489 /NodeList/6/DeviceList/4/$ns3::CsmaNetDevice/MacRx ns3::EthernetHeader ( length/type=0x800, source=00:00:00:00:00:17, destination=00:00:00:00:00:18) ns3::Ipv4Header (tos 0x0 DSCP Default ECN Not-ECT ttl 64 id 0 protocol 17 offset (bytes) 2960 flags [none] length: 68 192.128.2.2 > 192.128.1.1) Payload Fragment [2952:3000] ns3::EthernetTrailer (fcs=0)
r 5.09642 /NodeList/6/DeviceList/4/$ns3::CsmaNetDevice/MacRx ns3::EthernetHeader ( length/type=0x800, source=00:00:00:00:00:17, destination=00:00:00:00:00:18) ns3::Ipv4Header (tos 0x0 DSCP Default ECN Not-ECT ttl 64 id 1 protocol 17 offset (bytes) 0 flags [MF] length: 1500 192.128.2.2 > 192.128.1.1) ns3::UdpHeader (length: 3008 49154 > 7454) Payload Fragment [0:1472] ns3::EthernetTrailer (fcs=0)
r 5.09687 /NodeList/6/DeviceList/4/$ns3::CsmaNetDevice/MacRx ns3::EthernetHeader ( length/type=0x800, source=00:00:00:00:00:17, destination=00:00:00:00:00:18) ns3::Ipv4Header (tos 0x0 DSCP Default ECN Not-ECT ttl 64 id 1 protocol 17 offset (bytes) 1480 flags [MF] length: 1500 192.128.2.2 > 192.128.1.1) Payload Fragment [1472:2952] ns3::EthernetTrailer (fcs=0)
r 5.09691 /NodeList/6/DeviceList/4/$ns3::CsmaNetDevice/MacRx ns3::EthernetHeader ( length/type=0x800, source=00:00:00:00:00:17, destination=00:00:00:00:00:18) ns3::Ipv4Header (tos 0x0 DSCP Default ECN Not-ECT ttl 64 id 1 protocol 17 offset (bytes) 2960 flags [none] length: 68 192.128.2.2 > 192.128.1.1) Payload Fragment [2952:3000] ns3::EthernetTrailer (fcs=0)
r 5.14442 /NodeList/6/DeviceList/4/$ns3::CsmaNetDevice/MacRx ns3::EthernetHeader ( length/type=0x800, source=00:00:00:00:00:17, destination=00:00:00:00:00:18) ns3::Ipv4Header (tos 0x0 DSCP Default ECN Not-ECT ttl 64 id 2 protocol 17 offset (bytes) 0 flags [MF] length: 1500 192.128.2.2 > 192.128.1.1) ns3::UdpHeader (length: 3008 49154 > 7454) Payload Fragment [0:1472] ns3::EthernetTrailer (fcs=0)
r 5.14485 /NodeList/6/DeviceList/4/$ns3::CsmaNetDevice/MacRx ns3::EthernetHeader ( length/type=0x800, source=00:00:00:00:00:17, destination=00:00:00:00:00:18) ns3::Ipv4Header (tos 0x0 DSCP Default ECN Not-ECT ttl 64 id 2 protocol 17 offset (bytes) 1480 flags [MF] length: 1500 192.128.2.2 > 192.128.1.1) Payload Fragment [1472:2952] ns3::EthernetTrailer (fcs=0)
r 5.14489 /NodeList/6/DeviceList/4/$ns3::CsmaNetDevice/MacRx ns3::EthernetHeader ( length/type=0x800, source=00:00:00:00:00:17, destination=00:00:00:00:00:18) ns3::Ipv4Header (tos 0x0 DSCP Default ECN Not-ECT ttl 64 id 2 protocol 17 offset (bytes) 2960 flags [none] length: 68 192.128.2.2 > 192.128.1.1) Payload Fragment [2952:3000] ns3::EthernetTrailer (fcs=0)
r 5.19242 /NodeList/6/DeviceList/4/$ns3::CsmaNetDevice/MacRx ns3::EthernetHeader ( length/type=0x800, source=00:00:00:00:00:17, destination=00:00:00:00:00:18) ns3::Ipv4Header (tos 0x0 DSCP Default ECN Not-ECT ttl 64 id 3 protocol 17 offset (bytes) 0 flags [MF] length: 1500 192.128.2.2 > 192.128.1.1) ns3::UdpHeader (length: 3008 49154 > 7454) Payload Fragment [0:1472] ns3::EthernetTrailer (fcs=0)
r 5.19285 /NodeList/6/DeviceList/4/$ns3::CsmaNetDevice/MacRx ns3::EthernetHeader ( length/type=0x800, source=00:00:00:00:00:17, destination=00:00:00:00:00:18) ns3::Ipv4Header (tos 0x0 DSCP Default ECN Not-ECT ttl 64 id 3 protocol 17 offset (bytes) 1480 flags [MF] length: 1500 192.128.2.2 > 192.128.1.1) Payload Fragment [1472:2952] ns3::EthernetTrailer (fcs=0)
r 5.1929 /NodeList/6/DeviceList/4/$ns3::CsmaNetDevice/MacRx ns3::EthernetHeader ( length/type=0x800, source=00:00:00:00:00:17, destination=00:00:00:00:00:18) ns3::Ipv4Header (tos 0x0 DSCP Default ECN Not-ECT ttl 64 id 3 protocol 17 offset (bytes) 2960 flags [none] length: 68 192.128.2.2 > 192.128.1.1) Payload Fragment [2952:3000] ns3::EthernetTrailer (fcs=0)
r 5.24042 /NodeList/6/DeviceList/4/$ns3::CsmaNetDevice/MacRx ns3::EthernetHeader ( length/type=0x800, source=00:00:00:00:00:17, destination=00:00:00:00:00:18) ns3::Ipv4Header (tos 0x0 DSCP Default ECN Not-ECT ttl 64 id 4 protocol 17 offset (bytes) 0 flags [MF] length: 1500 192.128.2.2 > 192.128.1.1) ns3::UdpHeader (length: 3008 49154 > 7454) Payload Fragment [0:1472] ns3::EthernetTrailer (fcs=0)
r 5.24088 /NodeList/6/DeviceList/4/$ns3::CsmaNetDevice/MacRx ns3::EthernetHeader ( length/type=0x800, source=00:00:00:00:00:17, destination=00:00:00:00:00:18) ns3::Ipv4Header (tos 0x0 DSCP Default ECN Not-ECT ttl 64 id 4 protocol 17 offset (bytes) 1480 flags [MF] length: 1500 192.128.2.2 > 192.128.1.1) Payload Fragment [1472:2952] ns3::EthernetTrailer (fcs=0)
r 5.24095 /NodeList/6/DeviceList/4/$ns3::CsmaNetDevice/MacRx ns3::EthernetHeader ( length/type=0x800, source=00:00:00:00:00:17, destination=00:00:00:00:00:18) ns3::Ipv4Header (tos 0x0 DSCP Default ECN Not-ECT ttl 64 id 4 protocol 17 offset (bytes) 2960 flags [none] length: 68 192.128.2.2 > 192.128.1.1) Payload Fragment [2952:3000] ns3::EthernetTrailer (fcs=0)
r 5.28842 /NodeList/6/DeviceList/4/$ns3::CsmaNetDevice/MacRx ns3::EthernetHeader ( length/type=0x800, source=00:00:00:00:00:17, destination=00:00:00:00:00:18) ns3::Ipv4Header (tos 0x0 DSCP Default ECN Not-ECT ttl 64 id 5 protocol 17 offset (bytes) 0 flags [MF] length: 1500 192.128.2.2 > 192.128.1.1) ns3::UdpHeader (length: 3008 49154 > 7454) Payload Fragment [0:1472] ns3::EthernetTrailer (fcs=0)
r 5.28888 /NodeList/6/DeviceList/4/$ns3::CsmaNetDevice/MacRx ns3::EthernetHeader ( length/type=0x800, source=00:00:00:00:00:17, destination=00:00:00:00:00:18) ns3::Ipv4Header (tos 0x0 DSCP Default ECN Not-ECT ttl 64 id 5 protocol 17 offset (bytes) 1480 flags [MF] length: 1500 192.128.2.2 > 192.128.1.1) Payload Fragment [1472:2952] ns3::EthernetTrailer (fcs=0)
r 5.28894 /NodeList/6/DeviceList/4/$ns3::CsmaNetDevice/MacRx ns3::EthernetHeader ( length/type=0x800, source=00:00:00:00:00:17, destination=00:00:00:00:00:18) ns3::Ipv4Header (tos 0x0 DSCP Default ECN Not-ECT ttl 64 id 5 protocol 17 offset (bytes) 2960 flags [none] length: 68 192.128.2.2 > 192.128.1.1) Payload Fragment [2952:3000] ns3::EthernetTrailer (fcs=0)
r 5.33642 /NodeList/6/DeviceList/4/$ns3::CsmaNetDevice/MacRx ns3::EthernetHeader ( length/type=0x800, source=00:00:00:00:00:17, destination=00:00:00:00:00:18) ns3::Ipv4Header (tos 0x0 DSCP Default ECN Not-ECT ttl 64 id 6 protocol 17 offset (bytes) 0 flags [MF] length: 1500 192.128.2.2 > 192.128.1.1) ns3::UdpHeader (length: 3008 49154 > 7454) Payload Fragment [0:1472] ns3::EthernetTrailer (fcs=0)
r 5.33685 /NodeList/6/DeviceList/4/$ns3::CsmaNetDevice/MacRx ns3::EthernetHeader ( length/type=0x800, source=00:00:00:00:00:17, destination=00:00:00:00:00:18) ns3::Ipv4Header (tos 0x0 DSCP Default ECN Not-ECT ttl 64 id 6 protocol 17 offset (bytes) 1480 flags [MF] length: 1500 192.128.2.2 > 192.128.1.1) Payload Fragment [1472:2952] ns3::EthernetTrailer (fcs=0)
r 5.3369 /NodeList/6/DeviceList/4/$ns3::CsmaNetDevice/MacRx ns3::EthernetHeader ( length/type=0x800, source=00:00:00:00:00:17, destination=00:00:00:00:00:18) ns3::Ipv4Header (tos 0x0 DSCP Default ECN Not-ECT ttl 64 id 6 protocol 17 offset (bytes) 2960 flags [none] length: 68 192.128.2.2 > 192.128.1.1) Payload Fragment [2952:3000] ns3::EthernetTrailer (fcs=0)
r 5.38442 /NodeList/6/DeviceList/4/$ns3::CsmaNetDevice/MacRx ns3::EthernetHeader ( length/type=0x800, source=00:00:00:00:00:17, destination=00:00:00:00:00:18) ns3::Ipv4Header (tos 0x0 DSCP Default ECN Not-ECT ttl 64 id 7 protocol 17 offset (bytes) 0 flags [MF] length: 1500 192.128.2.2 > 192.128.1.1) ns3::UdpHeader (length: 3008 49154 > 7454) Payload Fragment [0:1472] ns3::EthernetTrailer (fcs=0)
r 5.38485 /NodeList/6/DeviceList/4/$ns3::CsmaNetDevice/MacRx ns3::EthernetHeader ( length/type=0x800, source=00:00:00:00:00:17, destination=00:00:00:00:00:18) ns3::Ipv4Header (tos 0x0 DSCP Default ECN Not-ECT ttl 64 id 7 protocol 17 offset (bytes) 1480 flags [MF] length: 1500 192.128.2.2 > 192.128.1.1) Payload Fragment [1472:2952] ns3::EthernetTrailer (fcs=0)
r 5.3849 /NodeList/6/DeviceList/4/$ns3::CsmaNetDevice/MacRx ns3::EthernetHeader ( length/type=0x800, source=00:00:00:00:00:17, destination=00:00:00:00:00:18) ns3::Ipv4Header (tos 0x0 DSCP Default ECN Not-ECT ttl 64 id 7 protocol 17 offset (bytes) 2960 flags [none] length: 68 192.128.2.2 > 192.128.1.1) Payload Fragment [2952:3000] ns3::EthernetTrailer (fcs=0)
r 5.43242 /NodeList/6/DeviceList/4/$ns3::CsmaNetDevice/MacRx ns3::EthernetHeader ( length/type=0x800, source=00:00:00:00:00:17, destination=00:00:00:00:00:18) ns3::Ipv4Header (tos 0x0 DSCP Default ECN Not-ECT ttl 64 id 8 protocol 17 offset (bytes) 0 flags [MF] length: 1500 192.128.2.2 > 192.128.1.1) ns3::UdpHeader (length: 3008 49154 > 7454) Payload Fragment [0:1472] ns3::EthernetTrailer (fcs=0)
r 5.43285 /NodeList/6/DeviceList/4/$ns3::CsmaNetDevice/MacRx ns3::EthernetHeader ( length/type=0x800, source=00:00:00:00:00:17, destination=00:00:00:00:00:18) ns3::Ipv4Header (tos 0x0 DSCP Default ECN Not-ECT ttl 64 id 8 protocol 17 offset (bytes) 1480 flags [MF] length: 1500 192.128.2.2 > 192.128.1.1) Payload Fragment [1472:2952] ns3::EthernetTrailer (fcs=0)
r 5.4329 /NodeList/6/DeviceList/4/$ns3::CsmaNetDevice/MacRx ns3::EthernetHeader ( length/type=0x800, source=00:00:00:00:00:17, destination=00:00:00:00:00:18) ns3::Ipv4Header (tos 0x0 DSCP Default ECN Not-ECT ttl 64 id 8 protocol 17 offset (bytes) 2960 flags [none] length: 68 192.128.2.2 > 192.128.1.1) Payload Fragment [2952:3000] ns3::EthernetTrailer (fcs=0)
r 5.48042 /NodeList/6/DeviceList/4/$ns3::CsmaNetDevice/MacRx ns3::EthernetHeader ( length/type=0x800, source=00:00:00:00:00:17, destination=00:00:00:00:00:18) ns3::Ipv4Header (tos 0x0 DSCP Default ECN Not-ECT ttl 64 id 9 protocol 17 offset (bytes) 0 flags [MF] length: 1500 192.128.2.2 > 192.128.1.1) ns3::UdpHeader (length: 3008 49154 > 7454) Payload Fragment [0:1472] ns3::EthernetTrailer (fcs=0)
r 5.48087 /NodeList/6/DeviceList/4/$ns3::CsmaNetDevice/MacRx ns3::EthernetHeader ( length/type=0x800, source=00:00:00:00:00:17, destination=00:00:00:00:00:18) ns3::Ipv4Header (tos 0x0 DSCP Default ECN Not-ECT ttl 64 id 9 protocol 17 offset (bytes) 1480 flags [MF] length: 1500 192.128.2.2 > 192.128.1.1) Payload Fragment [1472:2952] ns3::EthernetTrailer (fcs=0)
r 5.48093 /NodeList/6/DeviceList/4/$ns3::CsmaNetDevice/MacRx ns3::EthernetHeader ( length/type=0x800, source=00:00:00:00:00:17, destination=00:00:00:00:00:18) ns3::Ipv4Header (tos 0x0 DSCP Default ECN Not-ECT ttl 64 id 9 protocol 17 offset (bytes) 2960 flags [none] length: 68 192.128.2.2 > 192.128.1.1) Payload Fragment [2952:3000] ns3::EthernetTrailer (fcs=0)
r 5.52842 /NodeList/6/DeviceList/4/$ns3::CsmaNetDevice/MacRx ns3::EthernetHeader ( length/type=0x800, source=00:00:00:00:00:17, destination=00:00:00:00:00:18) ns3::Ipv4Header (tos 0x0 DSCP Default ECN Not-ECT ttl 64 id 10 protocol 17 offset (bytes) 0 flags [MF] length: 1500 192.128.2.2 > 192.128.1.1) ns3::UdpHeader (length: 3008 49154 > 7454) Payload Fragment [0:1472] ns3::EthernetTrailer (fcs=0)
r 5.52885 /NodeList/6/DeviceList/4/$ns3::CsmaNetDevice/MacRx ns3::EthernetHeader ( length/type=0x800, source=00:00:00:00:00:17, destination=00:00:00:00:00:18) ns3::Ipv4Header (tos 0x0 DSCP Default ECN Not-ECT ttl 64 id 10 protocol 17 offset (bytes) 1480 flags [MF] length: 1500 192.128.2.2 > 192.128.1.1) Payload Fragment [1472:2952] ns3::EthernetTrailer (fcs=0)
r 5.52891 /NodeList/6/DeviceList/4/$ns3::CsmaNetDevice/MacRx ns3::EthernetHeader ( length/type=0x800, source=00:00:00:00:00:17, destination=00:00:00:00:00:18) ns3::Ipv4Header (tos 0x0 DSCP Default ECN Not-ECT ttl 64 id 10 protocol 17 offset (bytes) 2960 flags [none] length: 68 192.128.2.2 > 192.128.1.1) Payload Fragment [2952:3000] ns3::EthernetTrailer (fcs=0)
r 5.57642 /NodeList/6/DeviceList/4/$ns3::CsmaNetDevice/MacRx ns3::EthernetHeader ( length/type=0x800, source=00:00:00:00:00:17, destination=00:00:00:00:00:18) ns3::Ipv4Header (tos 0x0 DSCP Default ECN Not-ECT ttl 64 id 11 protocol 17 offset (bytes) 0 flags [MF] length: 1500 192.128.2.2 > 192.128.1.1) ns3::UdpHeader (length: 3008 49154 > 7454) Payload Fragment [0:1472] ns3::EthernetTrailer (fcs=0)
r 5.57686 /NodeList/6/DeviceList/4/$ns3::CsmaNetDevice/MacRx ns3::EthernetHeader ( length/type=0x800, source=00:00:00:00:00:17, destination=00:00:00:00:00:18) ns3::Ipv4Header (tos 0x0 DSCP Default ECN Not-ECT ttl 64 id 11 protocol 17 offset (bytes) 1480 flags [MF] length: 1500 192.128.2.2 > 192.128.1.1) Payload Fragment [1472:2952] ns3::EthernetTrailer (fcs=0)
r 5.57691 /NodeList/6/DeviceList/4/$ns3::CsmaNetDevice/MacRx ns3::EthernetHeader ( length/type=0x800, source=00:00:00:00:00:17, destination=00:00:00:00:00:18) ns3::Ipv4Header (tos 0x0 DSCP Default ECN Not-ECT ttl 64 id 11 protocol 17 offset (bytes) 2960 flags [none] length: 68 192.128.2.2 > 192.128.1.1) Payload Fragment [2952:3000] ns3::EthernetTrailer (fcs=0)
r 5.62442 /NodeList/6/DeviceList/4/$ns3::CsmaNetDevice/MacRx ns3::EthernetHeader ( length/type=0x800, source=00:00:00:00:00:17, destination=00:00:00:00:00:18) ns3::Ipv4Header (tos 0x0 DSCP Default ECN Not-ECT ttl 64 id 12 protocol 17 offset (bytes) 0 flags [MF] length: 1500 192.128.2.2 > 192.128.1.1) ns3::UdpHeader (length: 3008 49154 > 7454) Payload Fragment [0:1472] ns3::EthernetTrailer (fcs=0)
r 5.62485 /NodeList/6/DeviceList/4/$ns3::CsmaNetDevice/MacRx ns3::EthernetHeader ( length/type=0x800, source=00:00:00:00:00:17, destination=00:00:00:00:00:18) ns3::Ipv4Header (tos 0x0 DSCP Default ECN Not-ECT ttl 64 id 12 protocol 17 offset (bytes) 1480 flags [MF] length: 1500 192.128.2.2 > 192.128.1.1) Payload Fragment [1472:2952] ns3::EthernetTrailer (fcs=0)
r 5.6249 /NodeList/6/DeviceList/4/$ns3::CsmaNetDevice/MacRx ns3::EthernetHeader ( length/type=0x800, source=00:00:00:00:00:17, destination=00:00:00:00:00:18) ns3::Ipv4Header (tos 0x0 DSCP Default ECN Not-ECT ttl 64 id 12 protocol 17 offset (bytes) 2960 flags [none] length: 68 192.128.2.2 > 192.128.1.1) Payload Fragment [2952:3000] ns3::EthernetTrailer (fcs=0)
r 5.67242 /NodeList/6/DeviceList/4/$ns3::CsmaNetDevice/MacRx ns3::EthernetHeader ( length/type=0x800, source=00:00:00:00:00:17, destination=00:00:00:00:00:18) ns3::Ipv4Header (tos 0x0 DSCP Default ECN Not-ECT ttl 64 id 13 protocol 17 offset (bytes) 0 flags [MF] length: 1500 192.128.2.2 > 192.128.1.1) ns3::UdpHeader (length: 3008 49154 > 7454) Payload Fragment [0:1472] ns3::EthernetTrailer (fcs=0)
r 5.67285 /NodeList/6/DeviceList/4/$ns3::CsmaNetDevice/MacRx ns3::EthernetHeader ( length/type=0x800, source=00:00:00:00:00:17, destination=00:00:00:00:00:18) ns3::Ipv4Header (tos 0x0 DSCP Default ECN Not-ECT ttl 64 id 13 protocol 17 offset (bytes) 1480 flags [MF] length: 1500 192.128.2.2 > 192.128.1.1) Payload Fragment [1472:2952] ns3::EthernetTrailer (fcs=0)
r 5.67291 /NodeList/6/DeviceList/4/$ns3::CsmaNetDevice/MacRx ns3::EthernetHeader ( length/type=0x800, source=00:00:00:00:00:17, destination=00:00:00:00:00:18) ns3::Ipv4Header (tos 0x0 DSCP Default ECN Not-ECT ttl 64 id 13 protocol 17 offset (bytes) 2960 flags [none] length: 68 192.128.2.2 > 192.128.1.1) Payload Fragment [2952:3000] ns3::EthernetTrailer (fcs=0)
r 5.72042 /NodeList/6/DeviceList/4/$ns3::CsmaNetDevice/MacRx ns3::EthernetHeader ( length/type=0x800, source=00:00:00:00:00:17, destination=00:00:00:00:00:18) ns3::Ipv4Header (tos 0x0 DSCP Default ECN Not-ECT ttl 64 id 14 protocol 17 offset (bytes) 0 flags [MF] length: 1500 192.128.2.2 > 192.128.1.1) ns3::UdpHeader (length: 3008 49154 > 7454) Payload Fragment [0:1472] ns3::EthernetTrailer (fcs=0)
r 5.72086 /NodeList/6/DeviceList/4/$ns3::CsmaNetDevice/MacRx ns3::EthernetHeader ( length/type=0x800, source=00:00:00:00:00:17, destination=00:00:00:00:00:18) ns3::Ipv4Header (tos 0x0 DSCP Default ECN Not-ECT ttl 64 id 14 protocol 17 offset (bytes) 1480 flags [MF] length: 1500 192.128.2.2 > 192.128.1.1) Payload Fragment [1472:2952] ns3::EthernetTrailer (fcs=0)
r 5.7209 /NodeList/6/DeviceList/4/$ns3::CsmaNetDevice/MacRx ns3::EthernetHeader ( length/type=0x800, source=00:00:00:00:00:17, destination=00:00:00:00:00:18) ns3::Ipv4Header (tos 0x0 DSCP Default ECN Not-ECT ttl 64 id 14 protocol 17 offset (bytes) 2960 flags [none] length: 68 192.128.2.2 > 192.128.1.1) Payload Fragment [2952:3000] ns3::EthernetTrailer (fcs=0)
r 5.76842 /NodeList/6/DeviceList/4/$ns3::CsmaNetDevice/MacRx ns3::EthernetHeader ( length/type=0x800, source=00:00:00:00:00:17, destination=00:00:00:00:00:18) ns3::Ipv4Header (tos 0x0 DSCP Default ECN Not-ECT ttl 64 id 15 protocol 17 offset (bytes) 0 flags [MF] length: 1500 192.128.2.2 > 192.128.1.1) ns3::UdpHeader (length: 3008 49154 > 7454) Payload Fragment [0:1472] ns3::EthernetTrailer (fcs=0)
r 5.76887 /NodeList/6/DeviceList/4/$ns3::CsmaNetDevice/MacRx ns3::EthernetHeader ( length/type=0x800, source=00:00:00:00:00:17, destination=00:00:00:00:00:18) ns3::Ipv4Header (tos 0x0 DSCP Default ECN Not-ECT ttl 64 id 15 protocol 17 offset (bytes) 1480 flags [MF] length: 1500 192.128.2.2 > 192.128.1.1) Payload Fragment [1472:2952] ns3::EthernetTrailer (fcs=0)
r 5.76891 /NodeList/6/DeviceList/4/$ns3::CsmaNetDevice/MacRx ns3::EthernetHeader ( length/type=0x800, source=00:00:00:00:00:17, destination=00:00:00:00:00:18) ns3::Ipv4Header (tos 0x0 DSCP Default ECN Not-ECT ttl 64 id 15 protocol 17 offset (bytes) 2960 flags [none] length: 68 192.128.2.2 > 192.128.1.1) Payload Fragment [2952:3000] ns3::EthernetTrailer (fcs=0)
r 5.81642 /NodeList/6/DeviceList/4/$ns3::CsmaNetDevice/MacRx ns3::EthernetHeader ( length/type=0x800, source=00:00:00:00:00:17, destination=00:00:00:00:00:18) ns3::Ipv4Header (tos 0x0 DSCP Default ECN Not-ECT ttl 64 id 16 protocol 17 offset (bytes) 0 flags [MF] length: 1500 192.128.2.2 > 192.128.1.1) ns3::UdpHeader (length: 3008 49154 > 7454) Payload Fragment [0:1472] ns3::EthernetTrailer (fcs=0)
r 5.81687 /NodeList/6/DeviceList/4/$ns3::CsmaNetDevice/MacRx ns3::EthernetHeader ( length/type=0x800, source=00:00:00:00:00:17, destination=00:00:00:00:00:18) ns3::Ipv4Header (tos 0x0 DSCP Default ECN Not-ECT ttl 64 id 16 protocol 17 offset (bytes) 1480 flags [MF] length: 1500 192.128.2.2 > 192.128.1.1) Payload Fragment [1472:2952] ns3::EthernetTrailer (fcs=0)
r 5.81691 /NodeList/6/DeviceList/4/$ns3::CsmaNetDevice/MacRx ns3::EthernetHeader ( length/type=0x800, source=00:00:00:00:00:17, destination=00:00:00:00:00:18) ns3::Ipv4Header (tos 0x0 DSCP Default ECN Not-ECT ttl 64 id 16 protocol 17 offset (bytes) 2960 flags [none] length: 68 192.128.2.2 > 192.128.1.1) Payload Fragment [2952:3000] ns3::EthernetTrailer (fcs=0)
r 5.86442 /NodeList/6/DeviceList/4/$ns3::CsmaNetDevice/MacRx ns3::EthernetHeader ( length/type=0x800, source=00:00:00:00:00:17, destination=00:00:00:00:00:18) ns3::Ipv4Header (tos 0x0 DSCP Default ECN Not-ECT ttl 64 id 17 protocol 17 offset (bytes) 0 flags [MF] length: 1500 192.128.2.2 > 192.128.1.1) ns3::UdpHeader (length: 3008 49154 > 7454) Payload Fragment [0:1472] ns3::EthernetTrailer (fcs=0)
r 5.86486 /NodeList/6/DeviceList/4/$ns3::CsmaNetDevice/MacRx ns3::EthernetHeader ( length/type=0x800, source=00:00:00:00:00:17, destination=00:00:00:00:00:18) ns3::Ipv4Header (tos 0x0 DSCP Default ECN Not-ECT ttl 64 id 17 protocol 17 offset (bytes) 1480 flags [MF] length: 1500 192.128.2.2 > 192.128.1.1) Payload Fragment [1472:2952] ns3::EthernetTrailer (fcs=0)
r 5.86492 /NodeList/6/DeviceList/4/$ns3::CsmaNetDevice/MacRx ns3::EthernetHeader ( length/type=0x800, source=00:00:00:00:00:17, destination=00:00:00:00:00:18) ns3::Ipv4Header (tos 0x0 DSCP Default ECN Not-ECT ttl 64 id 17 protocol 17 offset (bytes) 2960 flags [none] length: 68 192.128.2.2 > 192.128.1.1) Payload Fragment [2952:3000] ns3::EthernetTrailer (fcs=0)
r 5.91242 /NodeList/6/DeviceList/4/$ns3::CsmaNetDevice/MacRx ns3::EthernetHeader ( length/type=0x800, source=00:00:00:00:00:17, destination=00:00:00:00:00:18) ns3::Ipv4Header (tos 0x0 DSCP Default ECN Not-ECT ttl 64 id 18 protocol 17 offset (bytes) 0 flags [MF] length: 1500 192.128.2.2 > 192.128.1.1) ns3::UdpHeader (length: 3008 49154 > 7454) Payload Fragment [0:1472] ns3::EthernetTrailer (fcs=0)
r 5.91285 /NodeList/6/DeviceList/4/$ns3::CsmaNetDevice/MacRx ns3::EthernetHeader ( length/type=0x800, source=00:00:00:00:00:17, destination=00:00:00:00:00:18) ns3::Ipv4Header (tos 0x0 DSCP Default ECN Not-ECT ttl 64 id 18 protocol 17 offset (bytes) 1480 flags [MF] length: 1500 192.128.2.2 > 192.128.1.1) Payload Fragment [1472:2952] ns3::EthernetTrailer (fcs=0)
r 5.9129 /NodeList/6/DeviceList/4/$ns3::CsmaNetDevice/MacRx ns3::EthernetHeader ( length/type=0x800, source=00:00:00:00:00:17, destination=00:00:00:00:00:18) ns3::Ipv4Header (tos 0x0 DSCP Default ECN Not-ECT ttl 64 id 18 protocol 17 offset (bytes) 2960 flags [none] length: 68 192.128.2.2 > 192.128.1.1) Payload Fragment [2952:3000] ns3::EthernetTrailer (fcs=0)
r 5.96042 /NodeList/6/DeviceList/4/$ns3::CsmaNetDevice/MacRx ns3::EthernetHeader ( length/type=0x800, source=00:00:00:00:00:17, destination=00:00:00:00:00:18) ns3::Ipv4Header (tos 0x0 DSCP Default ECN Not-ECT ttl 64 id 19 protocol 17 offset (bytes) 0 flags [MF] length: 1500 192.128.2.2 > 192.128.1.1) ns3::UdpHeader (length: 3008 49154 > 7454) Payload Fragment [0:1472] ns3::EthernetTrailer (fcs=0)
r 5.96085 /NodeList/6/DeviceList/4/$ns3::CsmaNetDevice/MacRx ns3::EthernetHeader ( length/type=0x800, source=00:00:00:00:00:17, destination=00:00:00:00:00:18) ns3::Ipv4Header (tos 0x0 DSCP Default ECN Not-ECT ttl 64 id 19 protocol 17 offset (bytes) 1480 flags [MF] length: 1500 192.128.2.2 > 192.128.1.1) Payload Fragment [1472:2952] ns3::EthernetTrailer (fcs=0)
r 5.96089 /NodeList/6/DeviceList/4/$ns3::CsmaNetDevice/MacRx ns3::EthernetHeader ( length/type=0x800, source=00:00:00:00:00:17, destination=00:00:00:00:00:18) ns3::Ipv4Header (tos 0x0 DSCP Default ECN Not-ECT ttl 64 id 19 protocol 17 offset (bytes) 2960 flags [none] length: 68 192.128.2.2 > 192.128.1.1) Payload Fragment [2952:3000] ns3::EthernetTrailer (fcs=0)
r 6.00004 /NodeList/6/DeviceList/4/$ns3::CsmaNetDevice/MacRx ns3::EthernetHeader ( length/type=0x800, source=00:00:00:00:00:17, destination=00:00:00:00:00:18) ns3::Ipv4Header (tos 0x0 DSCP Default ECN Not-ECT ttl 64 id 3 protocol 17 offset (bytes) 0 flags [none] length: 34 192.128.2.2 > 192.128.1.3) ns3::UdpHeader (length: 14 49153 > 63) Payload (size=6) Payload (size=12) ns3::EthernetTrailer (fcs=0)
+ 6.00011 /NodeList/6/DeviceList/4/$ns3::CsmaNetDevice/TxQueue/Enqueue ns3::EthernetHeader ( length/type=0x800, source=00:00:00:00:00:18, destination=00:00:00:00:00:17) ns3::Ipv4Header (tos 0x0 DSCP Default ECN Not-ECT ttl 61 id 2 protocol 17 offset (bytes) 0 flags [none] length: 34 10.1.1.1 > 192.128.2.2) ns3::UdpHeader (length: 14 63 > 49153) Payload (size=6) Payload (size=12) ns3::EthernetTrailer (fcs=0)
- 6.00011 /NodeList/6/DeviceList/4/$ns3::CsmaNetDevice/TxQueue/Dequeue ns3::EthernetHeader ( length/type=0x800, source=00:00:00:00:00:18, destination=00:00:00:00:00:17) ns3::Ipv4Header (tos 0x0 DSCP Default ECN Not-ECT ttl 61 id 2 protocol 17 offset (bytes) 0 flags [none] length: 34 10.1.1.1 > 192.128.2.2) ns3::UdpHeader (length: 14 63 > 49153) Payload (size=6) Payload (size=12) ns3::EthernetTrailer (fcs=0)