r 2.00204 /NodeList/6/DeviceList/4/$ns3::CsmaNetDevice/MacRx ns3::EthernetHeader ( length/type=0x806, source=00:00:00:00:00:17, destination=ff:ff:ff:ff:ff:ff) ns3::ArpHeader (request source mac: 00-06-00:00:00:00:00:17 source ipv4: 192.128.2.2 dest ipv4: 192.128.2.3) Payload (size=18) ns3::EthernetTrailer (fcs=0)
+ 2.00204 /NodeList/6/DeviceList/4/$ns3::CsmaNetDevice/TxQueue/Enqueue ns3::EthernetHeader ( length/type=0x806, source=00:00:00:00:00:18, destination=00:00:00:00:00:17) ns3::ArpHeader (reply source mac: 00-06-00:00:00:00:00:18 source ipv4: 192.128.2.3 dest mac: 00-06-00:00:00:00:00:17 dest ipv4: 192.128.2.2) Payload (size=18) ns3::EthernetTrailer (fcs=0)
- 2.00204 /NodeList/6/DeviceList/4/$ns3::CsmaNetDevice/TxQueue/Dequeue ns3::EthernetHeader ( length/type=0x806, source=00:00:00:00:00:18, destination=00:00:00:00:00:17) ns3::ArpHeader (reply source mac: 00-06-00:00:00:00:00:18 source ipv4: 192.128.2.3 dest mac: 00-06-00:00:00:00:00:17 dest ipv4: 192.128.2.2) Payload (size=18) ns3::EthernetTrailer (fcs=0)
r 2.00212 /NodeList/6/DeviceList/4/$ns3::CsmaNetDevice/MacRx ns3::EthernetHeader ( length/type=0x800, source=00:00:00:00:00:17, destination=00:00:00:00:00:18) ns3::Ipv4Header (tos 0x0 DSCP Default ECN Not-ECT ttl 64 id 0 protocol 6 offset (bytes) 0 flags [none] length: 56 192.128.2.2 > 192.128.1.1) ns3::TcpHeader (49153 > 7457 [SYN] Seq=0 Ack=0 Win=65535 ns3::TcpOptionTS(2000;0) ns3::TcpOptionWinScale(2) ns3::TcpOptionSackPermitted([sack_perm]) ns3::TcpOptionEnd(EOL)) ns3::EthernetTrailer (fcs=0)
+ 2.01439 /NodeList/6/DeviceList/4/$ns3::CsmaNetDevice/TxQueue/Enqueue ns3::EthernetHeader ( length/type=0x806, source=00:00:00:00:00:18, destination=ff:ff:ff:ff:ff:ff) ns3::ArpHeader (request source mac: 00-06-00:00:00:00:00:18 source ipv4: 192.128.2.3 dest ipv4: 192.128.2.2) Payload (size=18) ns3::EthernetTrailer (fcs=0)
- 2.01439 /NodeList/6/DeviceList/4/$ns3::CsmaNetDevice/TxQueue/Dequeue ns3::EthernetHeader ( length/type=0x806, source=00:00:00:00:00:18, destination=ff:ff:ff:ff:ff:ff) ns3::ArpHeader (request source mac: 00-06-00:00:00:00:00:18 source ipv4: 192.128.2.3 dest ipv4: 192.128.2.2) Payload (size=18) ns3::EthernetTrailer (fcs=0)
r 2.01447 /NodeList/6/DeviceList/4/$ns3::CsmaNetDevice/MacRx ns3::EthernetHeader ( length/type=0x806, source=00:00:00:00:00:17, destination=00:00:00:00:00:18) ns3::ArpHeader (reply source mac: 00-06-00:00:00:00:00:17 source ipv4: 192.128.2.2 dest mac: 00-06-00:00:00:00:00:18 dest ipv4: 192.128.2.3) Payload (size=18) ns3::EthernetTrailer (fcs=0)
+ 2.01447 /NodeList/6/DeviceList/4/$ns3::CsmaNetDevice/TxQueue/Enqueue ns3::EthernetHeader ( length/type=0x800, source=00:00:00:00:00:18, destination=00:00:00:00:00:17) ns3::Ipv4Header (tos 0x0 DSCP Default ECN Not-ECT ttl 60 id 0 protocol 6 offset (bytes) 0 flags [none] length: 56 192.128.1.1 > 192.128.2.2) ns3::TcpHeader (7457 > 49153 [SYN|ACK] Seq=0 Ack=1 Win=65535 ns3::TcpOptionTS(2005;2000) ns3::TcpOptionWinScale(2) ns3::TcpOptionSackPermitted([sack_perm]) ns3::TcpOptionEnd(EOL)) ns3::EthernetTrailer (fcs=0)
- 2.01447 /NodeList/6/DeviceList/4/$ns3::CsmaNetDevice/TxQueue/Dequeue ns3::EthernetHeader ( length/type=0x800, source=00:00:00:00:00:18, destination=00:00:00:00:00:17) ns3::Ipv4Header (tos 0x0 DSCP Default ECN Not-ECT ttl 60 id 0 protocol 6 offset (bytes) 0 flags [none] length: 56 192.128.1.1 > 192.128.2.2) ns3::TcpHeader (7457 > 49153 [SYN|ACK] Seq=0 Ack=1 Win=65535 ns3::TcpOptionTS(2005;2000) ns3::TcpOptionWinScale(2) ns3::TcpOptionSackPermitted([sack_perm]) ns3::TcpOptionEnd(EOL)) ns3::EthernetTrailer (fcs=0)
r 2.01455 /NodeList/6/DeviceList/4/$ns3::CsmaNetDevice/MacRx ns3::EthernetHeader ( length/type=0x800, source=00:00:00:00:00:17, destination=00:00:00:00:00:18) ns3::Ipv4Header (tos 0x0 DSCP Default ECN Not-ECT ttl 64 id 1 protocol 6 offset (bytes) 0 flags [none] length: 52 192.128.2.2 > 192.128.1.1) ns3::TcpHeader (49153 > 7457 [ACK] Seq=1 Ack=1 Win=32768 ns3::TcpOptionTS(2014;2005) ns3::TcpOptionEnd(EOL)) ns3::EthernetTrailer (fcs=0)
r 2.09469 /NodeList/6/DeviceList/4/$ns3::CsmaNetDevice/MacRx ns3::EthernetHeader ( length/type=0x800, source=00:00:00:00:00:17, destination=00:00:00:00:00:18) ns3::Ipv4Header (tos 0x0 DSCP Default ECN Not-ECT ttl 64 id 2 protocol 6 offset (bytes) 0 flags [none] length: 588 192.128.2.2 > 192.128.1.1) ns3::TcpHeader (49153 > 7457 [ACK] Seq=1 Ack=1 Win=32768 ns3::TcpOptionTS(2094;2005) ns3::TcpOptionEnd(EOL)) Payload Fragment [0:536] ns3::EthernetTrailer (fcs=0)
r 2.09488 /NodeList/6/DeviceList/4/$ns3::CsmaNetDevice/MacRx ns3::EthernetHeader ( length/type=0x800, source=00:00:00:00:00:17, destination=00:00:00:00:00:18) ns3::Ipv4Header (tos 0x0 DSCP Default ECN Not-ECT ttl 64 id 3 protocol 6 offset (bytes) 0 flags [none] length: 588 192.128.2.2 > 192.128.1.1) ns3::TcpHeader (49153 > 7457 [ACK] Seq=537 Ack=1 Win=32768 ns3::TcpOptionTS(2094;2005) ns3::TcpOptionEnd(EOL)) Payload Fragment [536:1072] ns3::EthernetTrailer (fcs=0)
r 2.09506 /NodeList/6/DeviceList/4/$ns3::CsmaNetDevice/MacRx ns3::EthernetHeader ( length/type=0x800, source=00:00:00:00:00:17, destination=00:00:00:00:00:18) ns3::Ipv4Header (tos 0x0 DSCP Default ECN Not-ECT ttl 64 id 4 protocol 6 offset (bytes) 0 flags [none] length: 588 192.128.2.2 > 192.128.1.1) ns3::TcpHeader (49153 > 7457 [ACK] Seq=1073 Ack=1 Win=32768 ns3::TcpOptionTS(2094;2005) ns3::TcpOptionEnd(EOL)) Payload Fragment [1072:1608] ns3::EthernetTrailer (fcs=0)
+ 2.09516 /NodeList/6/DeviceList/4/$ns3::CsmaNetDevice/TxQueue/Enqueue ns3::EthernetHeader ( length/type=0x800, source=00:00:00:00:00:18, destination=00:00:00:00:00:17) ns3::Ipv4Header (tos 0x0 DSCP Default ECN Not-ECT ttl 60 id 1 protocol 6 offset (bytes) 0 flags [none] length: 52 192.128.1.1 > 192.128.2.2) ns3::TcpHeader (7457 > 49153 [ACK] Seq=1 Ack=537 Win=32768 ns3::TcpOptionTS(2095;2094) ns3::TcpOptionEnd(EOL)) ns3::EthernetTrailer (fcs=0)
- 2.09516 /NodeList/6/DeviceList/4/$ns3::CsmaNetDevice/TxQueue/Dequeue ns3::EthernetHeader ( length/type=0x800, source=00:00:00:00:00:18, destination=00:00:00:00:00:17) ns3::Ipv4Header (tos 0x0 DSCP Default ECN Not-ECT ttl 60 id 1 protocol 6 offset (bytes) 0 flags [none] length: 52 192.128.1.1 > 192.128.2.2) ns3::TcpHeader (7457 > 49153 [ACK] Seq=1 Ack=537 Win=32768 ns3::TcpOptionTS(2095;2094) ns3::TcpOptionEnd(EOL)) ns3::EthernetTrailer (fcs=0)
r 2.09525 /NodeList/6/DeviceList/4/$ns3::CsmaNetDevice/MacRx ns3::EthernetHeader ( length/type=0x800, source=00:00:00:00:00:17, destination=00:00:00:00:00:18) ns3::Ipv4Header (tos 0x0 DSCP Default ECN Not-ECT ttl 64 id 5 protocol 6 offset (bytes) 0 flags [none] length: 588 192.128.2.2 > 192.128.1.1) ns3::TcpHeader (49153 > 7457 [ACK] Seq=1609 Ack=1 Win=32768 ns3::TcpOptionTS(2094;2005) ns3::TcpOptionEnd(EOL)) Payload Fragment [1608:2144] ns3::EthernetTrailer (fcs=0)
r 2.09543 /NodeList/6/DeviceList/4/$ns3::CsmaNetDevice/MacRx ns3::EthernetHeader ( length/type=0x800, source=00:00:00:00:00:17, destination=00:00:00:00:00:18) ns3::Ipv4Header (tos 0x0 DSCP Default ECN Not-ECT ttl 64 id 6 protocol 6 offset (bytes) 0 flags [none] length: 588 192.128.2.2 > 192.128.1.1) ns3::TcpHeader (49153 > 7457 [ACK] Seq=2145 Ack=1 Win=32768 ns3::TcpOptionTS(2094;2005) ns3::TcpOptionEnd(EOL)) Payload Fragment [2144:2680] ns3::EthernetTrailer (fcs=0)
+ 2.09566 /NodeList/6/DeviceList/4/$ns3::CsmaNetDevice/TxQueue/Enqueue ns3::EthernetHeader ( length/type=0x800, source=00:00:00:00:00:18, destination=00:00:00:00:00:17) ns3::Ipv4Header (tos 0x0 DSCP Default ECN Not-ECT ttl 60 id 2 protocol 6 offset (bytes) 0 flags [none] length: 52 192.128.1.1 > 192.128.2.2) ns3::TcpHeader (7457 > 49153 [ACK] Seq=1 Ack=1609 Win=32768 ns3::TcpOptionTS(2095;2094) ns3::TcpOptionEnd(EOL)) ns3::EthernetTrailer (fcs=0)
- 2.09566 /NodeList/6/DeviceList/4/$ns3::CsmaNetDevice/TxQueue/Dequeue ns3::EthernetHeader ( length/type=0x800, source=00:00:00:00:00:18, destination=00:00:00:00:00:17) ns3::Ipv4Header (tos 0x0 DSCP Default ECN Not-ECT ttl 60 id 2 protocol 6 offset (bytes) 0 flags [none] length: 52 192.128.1.1 > 192.128.2.2) ns3::TcpHeader (7457 > 49153 [ACK] Seq=1 Ack=1609 Win=32768 ns3::TcpOptionTS(2095;2094) ns3::TcpOptionEnd(EOL)) ns3::EthernetTrailer (fcs=0)
r 2.09569 /NodeList/6/DeviceList/4/$ns3::CsmaNetDevice/MacRx ns3::EthernetHeader ( length/type=0x800, source=00:00:00:00:00:17, destination=00:00:00:00:00:18) ns3::Ipv4Header (tos 0x0 DSCP Default ECN Not-ECT ttl 64 id 7 protocol 6 offset (bytes) 0 flags [none] length: 588 192.128.2.2 > 192.128.1.1) ns3::TcpHeader (49153 > 7457 [ACK] Seq=2681 Ack=1 Win=32768 ns3::TcpOptionTS(2094;2005) ns3::TcpOptionEnd(EOL)) Payload Fragment [2680:3216] ns3::EthernetTrailer (fcs=0)
r 2.09587 /NodeList/6/DeviceList/4/$ns3::CsmaNetDevice/MacRx ns3::EthernetHeader ( length/type=0x800, source=00:00:00:00:00:17, destination=00:00:00:00:00:18) ns3::Ipv4Header (tos 0x0 DSCP Default ECN Not-ECT ttl 64 id 8 protocol 6 offset (bytes) 0 flags [none] length: 588 192.128.2.2 > 192.128.1.1) ns3::TcpHeader (49153 > 7457 [ACK] Seq=3217 Ack=1 Win=32768 ns3::TcpOptionTS(2094;2005) ns3::TcpOptionEnd(EOL)) Payload Fragment [3216:3752] ns3::EthernetTrailer (fcs=0)
r 2.09607 /NodeList/6/DeviceList/4/$ns3::CsmaNetDevice/MacRx ns3::EthernetHeader ( length/type=0x800, source=00:00:00:00:00:17, destination=00:00:00:00:00:18) ns3::Ipv4Header (tos 0x0 DSCP Default ECN Not-ECT ttl 64 id 9 protocol 6 offset (bytes) 0 flags [none] length: 588 192.128.2.2 > 192.128.1.1) ns3::TcpHeader (49153 > 7457 [ACK] Seq=3753 Ack=1 Win=32768 ns3::TcpOptionTS(2094;2005) ns3::TcpOptionEnd(EOL)) Payload Fragment [3752:4288] ns3::EthernetTrailer (fcs=0)
r 2.09629 /NodeList/6/DeviceList/4/$ns3::CsmaNetDevice/MacRx ns3::EthernetHeader ( length/type=0x800, source=00:00:00:00:00:17, destination=00:00:00:00:00:18) ns3::Ipv4Header (tos 0x0 DSCP Default ECN Not-ECT ttl 64 id 10 protocol 6 offset (bytes) 0 flags [none] length: 588 192.128.2.2 > 192.128.1.1) ns3::TcpHeader (49153 > 7457 [ACK] Seq=4289 Ack=1 Win=32768 ns3::TcpOptionTS(2094;2005) ns3::TcpOptionEnd(EOL)) Payload Fragment [4288:4824] ns3::EthernetTrailer (fcs=0)
r 2.0964 /NodeList/6/DeviceList/4/$ns3::CsmaNetDevice/MacRx ns3::EthernetHeader ( length/type=0x800, source=00:00:00:00:00:17, destination=00:00:00:00:00:18) ns3::Ipv4Header (tos 0x0 DSCP Default ECN Not-ECT ttl 64 id 11 protocol 6 offset (bytes) 0 flags [none] length: 228 192.128.2.2 > 192.128.1.1) ns3::TcpHeader (49153 > 7457 [ACK] Seq=4825 Ack=1 Win=32768 ns3::TcpOptionTS(2094;2005) ns3::TcpOptionEnd(EOL)) Payload Fragment [4824:5000] ns3::EthernetTrailer (fcs=0)
+ 2.09739 /NodeList/6/DeviceList/4/$ns3::CsmaNetDevice/TxQueue/Enqueue ns3::EthernetHeader ( length/type=0x800, source=00:00:00:00:00:18, destination=00:00:00:00:00:17) ns3::Ipv4Header (tos 0x0 DSCP Default ECN Not-ECT ttl 60 id 3 protocol 6 offset (bytes) 0 flags [none] length: 52 192.128.1.1 > 192.128.2.2) ns3::TcpHeader (7457 > 49153 [ACK] Seq=1 Ack=2681 Win=32768 ns3::TcpOptionTS(2096;2094) ns3::TcpOptionEnd(EOL)) ns3::EthernetTrailer (fcs=0)
- 2.09739 /NodeList/6/DeviceList/4/$ns3::CsmaNetDevice/TxQueue/Dequeue ns3::EthernetHeader ( length/type=0x800, source=00:00:00:00:00:18, destination=00:00:00:00:00:17) ns3::Ipv4Header (tos 0x0 DSCP Default ECN Not-ECT ttl 60 id 3 protocol 6 offset (bytes) 0 flags [none] length: 52 192.128.1.1 > 192.128.2.2) ns3::TcpHeader (7457 > 49153 [ACK] Seq=1 Ack=2681 Win=32768 ns3::TcpOptionTS(2096;2094) ns3::TcpOptionEnd(EOL)) ns3::EthernetTrailer (fcs=0)
+ 2.09743 /NodeList/6/DeviceList/4/$ns3::CsmaNetDevice/TxQueue/Enqueue ns3::EthernetHeader ( length/type=0x800, source=00:00:00:00:00:18, destination=00:00:00:00:00:17) ns3::Ipv4Header (tos 0x0 DSCP Default ECN Not-ECT ttl 60 id 4 protocol 6 offset (bytes) 0 flags [none] length: 52 192.128.1.1 > 192.128.2.2) ns3::TcpHeader (7457 > 49153 [ACK] Seq=1 Ack=3753 Win=32768 ns3::TcpOptionTS(2096;2094) ns3::TcpOptionEnd(EOL)) ns3::EthernetTrailer (fcs=0)
- 2.09743 /NodeList/6/DeviceList/4/$ns3::CsmaNetDevice/TxQueue/Dequeue ns3::EthernetHeader ( length/type=0x800, source=00:00:00:00:00:18, destination=00:00:00:00:00:17) ns3::Ipv4Header (tos 0x0 DSCP Default ECN Not-ECT ttl 60 id 4 protocol 6 offset (bytes) 0 flags [none] length: 52 192.128.1.1 > 192.128.2.2) ns3::TcpHeader (7457 > 49153 [ACK] Seq=1 Ack=3753 Win=32768 ns3::TcpOptionTS(2096;2094) ns3::TcpOptionEnd(EOL)) ns3::EthernetTrailer (fcs=0)
+ 2.09747 /NodeList/6/DeviceList/4/$ns3::CsmaNetDevice/TxQueue/Enqueue ns3::EthernetHeader ( length/type=0x800, source=00:00:00:00:00:18, destination=00:00:00:00:00:17) ns3::Ipv4Header (tos 0x0 DSCP Default ECN Not-ECT ttl 60 id 5 protocol 6 offset (bytes) 0 flags [none] length: 52 192.128.1.1 > 192.128.2.2) ns3::TcpHeader (7457 > 49153 [ACK] Seq=1 Ack=4825 Win=32768 ns3::TcpOptionTS(2096;2094) ns3::TcpOptionEnd(EOL)) ns3::EthernetTrailer (fcs=0)
- 2.09747 /NodeList/6/DeviceList/4/$ns3::CsmaNetDevice/TxQueue/Dequeue ns3::EthernetHeader ( length/type=0x800, source=00:00:00:00:00:18, destination=00:00:00:00:00:17) ns3::Ipv4Header (tos 0x0 DSCP Default ECN Not-ECT ttl 60 id 5 protocol 6 offset (bytes) 0 flags [none] length: 52 192.128.1.1 > 192.128.2.2) ns3::TcpHeader (7457 > 49153 [ACK] Seq=1 Ack=4825 Win=32768 ns3::TcpOptionTS(2096;2094) ns3::TcpOptionEnd(EOL)) ns3::EthernetTrailer (fcs=0)
r 2.17469 /NodeList/6/DeviceList/4/$ns3::CsmaNetDevice/MacRx ns3::EthernetHeader ( length/type=0x800, source=00:00:00:00:00:17, destination=00:00:00:00:00:18) ns3::Ipv4Header (tos 0x0 DSCP Default ECN Not-ECT ttl 64 id 12 protocol 6 offset (bytes) 0 flags [none] length: 588 192.128.2.2 > 192.128.1.1) ns3::TcpHeader (49153 > 7457 [ACK] Seq=5001 Ack=1 Win=32768 ns3::TcpOptionTS(2174;2096) ns3::TcpOptionEnd(EOL)) Payload Fragment [0:536] ns3::EthernetTrailer (fcs=0)
r 2.1749 /NodeList/6/DeviceList/4/$ns3::CsmaNetDevice/MacRx ns3::EthernetHeader ( length/type=0x800, source=00:00:00:00:00:17, destination=00:00:00:00:00:18) ns3::Ipv4Header (tos 0x0 DSCP Default ECN Not-ECT ttl 64 id 13 protocol 6 offset (bytes) 0 flags [none] length: 588 192.128.2.2 > 192.128.1.1) ns3::TcpHeader (49153 > 7457 [ACK] Seq=5537 Ack=1 Win=32768 ns3::TcpOptionTS(2174;2096) ns3::TcpOptionEnd(EOL)) Payload Fragment [536:1072] ns3::EthernetTrailer (fcs=0)
r 2.1751 /NodeList/6/DeviceList/4/$ns3::CsmaNetDevice/MacRx ns3::EthernetHeader ( length/type=0x800, source=00:00:00:00:00:17, destination=00:00:00:00:00:18) ns3::Ipv4Header (tos 0x0 DSCP Default ECN Not-ECT ttl 64 id 14 protocol 6 offset (bytes) 0 flags [none] length: 588 192.128.2.2 > 192.128.1.1) ns3::TcpHeader (49153 > 7457 [ACK] Seq=6073 Ack=1 Win=32768 ns3::TcpOptionTS(2174;2096) ns3::TcpOptionEnd(EOL)) Payload Fragment [1072:1608] ns3::EthernetTrailer (fcs=0)
+ 2.17516 /NodeList/6/DeviceList/4/$ns3::CsmaNetDevice/TxQueue/Enqueue ns3::EthernetHeader ( length/type=0x800, source=00:00:00:00:00:18, destination=00:00:00:00:00:17) ns3::Ipv4Header (tos 0x0 DSCP Default ECN Not-ECT ttl 60 id 6 protocol 6 offset (bytes) 0 flags [none] length: 52 192.128.1.1 > 192.128.2.2) ns3::TcpHeader (7457 > 49153 [ACK] Seq=1 Ack=5537 Win=32768 ns3::TcpOptionTS(2175;2094) ns3::TcpOptionEnd(EOL)) ns3::EthernetTrailer (fcs=0)
- 2.17516 /NodeList/6/DeviceList/4/$ns3::CsmaNetDevice/TxQueue/Dequeue ns3::EthernetHeader ( length/type=0x800, source=00:00:00:00:00:18, destination=00:00:00:00:00:17) ns3::Ipv4Header (tos 0x0 DSCP Default ECN Not-ECT ttl 60 id 6 protocol 6 offset (bytes) 0 flags [none] length: 52 192.128.1.1 > 192.128.2.2) ns3::TcpHeader (7457 > 49153 [ACK] Seq=1 Ack=5537 Win=32768 ns3::TcpOptionTS(2175;2094) ns3::TcpOptionEnd(EOL)) ns3::EthernetTrailer (fcs=0)
r 2.17528 /NodeList/6/DeviceList/4/$ns3::CsmaNetDevice/MacRx ns3::EthernetHeader ( length/type=0x800, source=00:00:00:00:00:17, destination=00:00:00:00:00:18) ns3::Ipv4Header (tos 0x0 DSCP Default ECN Not-ECT ttl 64 id 15 protocol 6 offset (bytes) 0 flags [none] length: 588 192.128.2.2 > 192.128.1.1) ns3::TcpHeader (49153 > 7457 [ACK] Seq=6609 Ack=1 Win=32768 ns3::TcpOptionTS(2174;2096) ns3::TcpOptionEnd(EOL)) Payload Fragment [1608:2144] ns3::EthernetTrailer (fcs=0)
r 2.17547 /NodeList/6/DeviceList/4/$ns3::CsmaNetDevice/MacRx ns3::EthernetHeader ( length/type=0x800, source=00:00:00:00:00:17, destination=00:00:00:00:00:18) ns3::Ipv4Header (tos 0x0 DSCP Default ECN Not-ECT ttl 64 id 16 protocol 6 offset (bytes) 0 flags [none] length: 588 192.128.2.2 > 192.128.1.1) ns3::TcpHeader (49153 > 7457 [ACK] Seq=7145 Ack=1 Win=32768 ns3::TcpOptionTS(2174;2096) ns3::TcpOptionEnd(EOL)) Payload Fragment [2144:2680] ns3::EthernetTrailer (fcs=0)
r 2.17566 /NodeList/6/DeviceList/4/$ns3::CsmaNetDevice/MacRx ns3::EthernetHeader ( length/type=0x800, source=00:00:00:00:00:17, destination=00:00:00:00:00:18) ns3::Ipv4Header (tos 0x0 DSCP Default ECN Not-ECT ttl 64 id 17 protocol 6 offset (bytes) 0 flags [none] length: 588 192.128.2.2 > 192.128.1.1) ns3::TcpHeader (49153 > 7457 [ACK] Seq=7681 Ack=1 Win=32768 ns3::TcpOptionTS(2174;2096) ns3::TcpOptionEnd(EOL)) Payload Fragment [2680:3216] ns3::EthernetTrailer (fcs=0)
r 2.17584 /NodeList/6/DeviceList/4/$ns3::CsmaNetDevice/MacRx ns3::EthernetHeader ( length/type=0x800, source=00:00:00:00:00:17, destination=00:00:00:00:00:18) ns3::Ipv4Header (tos 0x0 DSCP Default ECN Not-ECT ttl 64 id 18 protocol 6 offset (bytes) 0 flags [none] length: 588 192.128.2.2 > 192.128.1.1) ns3::TcpHeader (49153 > 7457 [ACK] Seq=8217 Ack=1 Win=32768 ns3::TcpOptionTS(2174;2096) ns3::TcpOptionEnd(EOL)) Payload Fragment [3216:3752] ns3::EthernetTrailer (fcs=0)
r 2.17603 /NodeList/6/DeviceList/4/$ns3::CsmaNetDevice/MacRx ns3::EthernetHeader ( length/type=0x800, source=00:00:00:00:00:17, destination=00:00:00:00:00:18) ns3::Ipv4Header (tos 0x0 DSCP Default ECN Not-ECT ttl 64 id 19 protocol 6 offset (bytes) 0 flags [none] length: 588 192.128.2.2 > 192.128.1.1) ns3::TcpHeader (49153 > 7457 [ACK] Seq=8753 Ack=1 Win=32768 ns3::TcpOptionTS(2174;2096) ns3::TcpOptionEnd(EOL)) Payload Fragment [3752:4288] ns3::EthernetTrailer (fcs=0)
r 2.17621 /NodeList/6/DeviceList/4/$ns3::CsmaNetDevice/MacRx ns3::EthernetHeader ( length/type=0x800, source=00:00:00:00:00:17, destination=00:00:00:00:00:18) ns3::Ipv4Header (tos 0x0 DSCP Default ECN Not-ECT ttl 64 id 20 protocol 6 offset (bytes) 0 flags [none] length: 588 192.128.2.2 > 192.128.1.1) ns3::TcpHeader (49153 > 7457 [ACK] Seq=9289 Ack=1 Win=32768 ns3::TcpOptionTS(2174;2096) ns3::TcpOptionEnd(EOL)) Payload Fragment [4288:4824] ns3::EthernetTrailer (fcs=0)
r 2.17631 /NodeList/6/DeviceList/4/$ns3::CsmaNetDevice/MacRx ns3::EthernetHeader ( length/type=0x800, source=00:00:00:00:00:17, destination=00:00:00:00:00:18) ns3::Ipv4Header (tos 0x0 DSCP Default ECN Not-ECT ttl 64 id 21 protocol 6 offset (bytes) 0 flags [none] length: 228 192.128.2.2 > 192.128.1.1) ns3::TcpHeader (49153 > 7457 [ACK] Seq=9825 Ack=1 Win=32768 ns3::TcpOptionTS(2174;2096) ns3::TcpOptionEnd(EOL)) Payload Fragment [4824:5000] ns3::EthernetTrailer (fcs=0)
+ 2.17706 /NodeList/6/DeviceList/4/$ns3::CsmaNetDevice/TxQueue/Enqueue ns3::EthernetHeader ( length/type=0x800, source=00:00:00:00:00:18, destination=00:00:00:00:00:17) ns3::Ipv4Header (tos 0x0 DSCP Default ECN Not-ECT ttl 60 id 7 protocol 6 offset (bytes) 0 flags [none] length: 52 192.128.1.1 > 192.128.2.2) ns3::TcpHeader (7457 > 49153 [ACK] Seq=1 Ack=6609 Win=32768 ns3::TcpOptionTS(2175;2174) ns3::TcpOptionEnd(EOL)) ns3::EthernetTrailer (fcs=0)
- 2.17706 /NodeList/6/DeviceList/4/$ns3::CsmaNetDevice/TxQueue/Dequeue ns3::EthernetHeader ( length/type=0x800, source=00:00:00:00:00:18, destination=00:00:00:00:00:17) ns3::Ipv4Header (tos 0x0 DSCP Default ECN Not-ECT ttl 60 id 7 protocol 6 offset (bytes) 0 flags [none] length: 52 192.128.1.1 > 192.128.2.2) ns3::TcpHeader (7457 > 49153 [ACK] Seq=1 Ack=6609 Win=32768 ns3::TcpOptionTS(2175;2174) ns3::TcpOptionEnd(EOL)) ns3::EthernetTrailer (fcs=0)
+ 2.1771 /NodeList/6/DeviceList/4/$ns3::CsmaNetDevice/TxQueue/Enqueue ns3::EthernetHeader ( length/type=0x800, source=00:00:00:00:00:18, destination=00:00:00:00:00:17) ns3::Ipv4Header (tos 0x0 DSCP Default ECN Not-ECT ttl 60 id 8 protocol 6 offset (bytes) 0 flags [none] length: 52 192.128.1.1 > 192.128.2.2) ns3::TcpHeader (7457 > 49153 [ACK] Seq=1 Ack=7681 Win=32768 ns3::TcpOptionTS(2175;2174) ns3::TcpOptionEnd(EOL)) ns3::EthernetTrailer (fcs=0)
- 2.1771 /NodeList/6/DeviceList/4/$ns3::CsmaNetDevice/TxQueue/Dequeue ns3::EthernetHeader ( length/type=0x800, source=00:00:00:00:00:18, destination=00:00:00:00:00:17) ns3::Ipv4Header (tos 0x0 DSCP Default ECN Not-ECT ttl 60 id 8 protocol 6 offset (bytes) 0 flags [none] length: 52 192.128.1.1 > 192.128.2.2) ns3::TcpHeader (7457 > 49153 [ACK] Seq=1 Ack=7681 Win=32768 ns3::TcpOptionTS(2175;2174) ns3::TcpOptionEnd(EOL)) ns3::EthernetTrailer (fcs=0)
+ 2.17714 /NodeList/6/DeviceList/4/$ns3::CsmaNetDevice/TxQueue/Enqueue ns3::EthernetHeader ( length/type=0x800, source=00:00:00:00:00:18, destination=00:00:00:00:00:17) ns3::Ipv4Header (tos 0x0 DSCP Default ECN Not-ECT ttl 60 id 9 protocol 6 offset (bytes) 0 flags [none] length: 52 192.128.1.1 > 192.128.2.2) ns3::TcpHeader (7457 > 49153 [ACK] Seq=1 Ack=8753 Win=32768 ns3::TcpOptionTS(2176;2174) ns3::TcpOptionEnd(EOL)) ns3::EthernetTrailer (fcs=0)
- 2.17714 /NodeList/6/DeviceList/4/$ns3::CsmaNetDevice/TxQueue/Dequeue ns3::EthernetHeader ( length/type=0x800, source=00:00:00:00:00:18, destination=00:00:00:00:00:17) ns3::Ipv4Header (tos 0x0 DSCP Default ECN Not-ECT ttl 60 id 9 protocol 6 offset (bytes) 0 flags [none] length: 52 192.128.1.1 > 192.128.2.2) ns3::TcpHeader (7457 > 49153 [ACK] Seq=1 Ack=8753 Win=32768 ns3::TcpOptionTS(2176;2174) ns3::TcpOptionEnd(EOL)) ns3::EthernetTrailer (fcs=0)
+ 2.17718 /NodeList/6/DeviceList/4/$ns3::CsmaNetDevice/TxQueue/Enqueue ns3::EthernetHeader ( length/type=0x800, source=00:00:00:00:00:18, destination=00:00:00:00:00:17) ns3::Ipv4Header (tos 0x0 DSCP Default ECN Not-ECT ttl 60 id 10 protocol 6 offset (bytes) 0 flags [none] length: 52 192.128.1.1 > 192.128.2.2) ns3::TcpHeader (7457 > 49153 [ACK] Seq=1 Ack=9825 Win=32768 ns3::TcpOptionTS(2176;2174) ns3::TcpOptionEnd(EOL)) ns3::EthernetTrailer (fcs=0)
- 2.17718 /NodeList/6/DeviceList/4/$ns3::CsmaNetDevice/TxQueue/Dequeue ns3::EthernetHeader ( length/type=0x800, source=00:00:00:00:00:18, destination=00:00:00:00:00:17) ns3::Ipv4Header (tos 0x0 DSCP Default ECN Not-ECT ttl 60 id 10 protocol 6 offset (bytes) 0 flags [none] length: 52 192.128.1.1 > 192.128.2.2) ns3::TcpHeader (7457 > 49153 [ACK] Seq=1 Ack=9825 Win=32768 ns3::TcpOptionTS(2176;2174) ns3::TcpOptionEnd(EOL)) ns3::EthernetTrailer (fcs=0)
r 2.25469 /NodeList/6/DeviceList/4/$ns3::CsmaNetDevice/MacRx ns3::EthernetHeader ( length/type=0x800, source=00:00:00:00:00:17, destination=00:00:00:00:00:18) ns3::Ipv4Header (tos 0x0 DSCP Default ECN Not-ECT ttl 64 id 22 protocol 6 offset (bytes) 0 flags [none] length: 588 192.128.2.2 > 192.128.1.1) ns3::TcpHeader (49153 > 7457 [ACK] Seq=10001 Ack=1 Win=32768 ns3::TcpOptionTS(2254;2176) ns3::TcpOptionEnd(EOL)) Payload Fragment [0:536] ns3::EthernetTrailer (fcs=0)
r 2.25489 /NodeList/6/DeviceList/4/$ns3::CsmaNetDevice/MacRx ns3::EthernetHeader ( length/type=0x800, source=00:00:00:00:00:17, destination=00:00:00:00:00:18) ns3::Ipv4Header (tos 0x0 DSCP Default ECN Not-ECT ttl 64 id 23 protocol 6 offset (bytes) 0 flags [none] length: 588 192.128.2.2 > 192.128.1.1) ns3::TcpHeader (49153 > 7457 [ACK] Seq=10537 Ack=1 Win=32768 ns3::TcpOptionTS(2254;2176) ns3::TcpOptionEnd(EOL)) Payload Fragment [536:1072] ns3::EthernetTrailer (fcs=0)
r 2.25507 /NodeList/6/DeviceList/4/$ns3::CsmaNetDevice/MacRx ns3::EthernetHeader ( length/type=0x800, source=00:00:00:00:00:17, destination=00:00:00:00:00:18) ns3::Ipv4Header (tos 0x0 DSCP Default ECN Not-ECT ttl 64 id 24 protocol 6 offset (bytes) 0 flags [none] length: 588 192.128.2.2 > 192.128.1.1) ns3::TcpHeader (49153 > 7457 [ACK] Seq=11073 Ack=1 Win=32768 ns3::TcpOptionTS(2254;2176) ns3::TcpOptionEnd(EOL)) Payload Fragment [1072:1608] ns3::EthernetTrailer (fcs=0)
+ 2.25516 /NodeList/6/DeviceList/4/$ns3::CsmaNetDevice/TxQueue/Enqueue ns3::EthernetHeader ( length/type=0x800, source=00:00:00:00:00:18, destination=00:00:00:00:00:17) ns3::Ipv4Header (tos 0x0 DSCP Default ECN Not-ECT ttl 60 id 11 protocol 6 offset (bytes) 0 flags [none] length: 52 192.128.1.1 > 192.128.2.2) ns3::TcpHeader (7457 > 49153 [ACK] Seq=1 Ack=10537 Win=32768 ns3::TcpOptionTS(2255;2174) ns3::TcpOptionEnd(EOL)) ns3::EthernetTrailer (fcs=0)
- 2.25516 /NodeList/6/DeviceList/4/$ns3::CsmaNetDevice/TxQueue/Dequeue ns3::EthernetHeader ( length/type=0x800, source=00:00:00:00:00:18, destination=00:00:00:00:00:17) ns3::Ipv4Header (tos 0x0 DSCP Default ECN Not-ECT ttl 60 id 11 protocol 6 offset (bytes) 0 flags [none] length: 52 192.128.1.1 > 192.128.2.2) ns3::TcpHeader (7457 > 49153 [ACK] Seq=1 Ack=10537 Win=32768 ns3::TcpOptionTS(2255;2174) ns3::TcpOptionEnd(EOL)) ns3::EthernetTrailer (fcs=0)
r 2.25527 /NodeList/6/DeviceList/4/$ns3::CsmaNetDevice/MacRx ns3::EthernetHeader ( length/type=0x800, source=00:00:00:00:00:17, destination=00:00:00:00:00:18) ns3::Ipv4Header (tos 0x0 DSCP Default ECN Not-ECT ttl 64 id 25 protocol 6 offset (bytes) 0 flags [none] length: 588 192.128.2.2 > 192.128.1.1) ns3::TcpHeader (49153 > 7457 [ACK] Seq=11609 Ack=1 Win=32768 ns3::TcpOptionTS(2254;2176) ns3::TcpOptionEnd(EOL)) Payload Fragment [1608:2144] ns3::EthernetTrailer (fcs=0)
r 2.25546 /NodeList/6/DeviceList/4/$ns3::CsmaNetDevice/MacRx ns3::EthernetHeader ( length/type=0x800, source=00:00:00:00:00:17, destination=00:00:00:00:00:18) ns3::Ipv4Header (tos 0x0 DSCP Default ECN Not-ECT ttl 64 id 26 protocol 6 offset (bytes) 0 flags [none] length: 588 192.128.2.2 > 192.128.1.1) ns3::TcpHeader (49153 > 7457 [ACK] Seq=12145 Ack=1 Win=32768 ns3::TcpOptionTS(2254;2176) ns3::TcpOptionEnd(EOL)) Payload Fragment [2144:2680] ns3::EthernetTrailer (fcs=0)
+ 2.25563 /NodeList/6/DeviceList/4/$ns3::CsmaNetDevice/TxQueue/Enqueue ns3::EthernetHeader ( length/type=0x800, source=00:00:00:00:00:18, destination=00:00:00:00:00:17) ns3::Ipv4Header (tos 0x0 DSCP Default ECN Not-ECT ttl 60 id 12 protocol 6 offset (bytes) 0 flags [none] length: 52 192.128.1.1 > 192.128.2.2) ns3::TcpHeader (7457 > 49153 [ACK] Seq=1 Ack=11609 Win=32768 ns3::TcpOptionTS(2255;2254) ns3::TcpOptionEnd(EOL)) ns3::EthernetTrailer (fcs=0)
r 2.25565 /NodeList/6/DeviceList/4/$ns3::CsmaNetDevice/MacRx ns3::EthernetHeader ( length/type=0x800, source=00:00:00:00:00:17, destination=00:00:00:00:00:18) ns3::Ipv4Header (tos 0x0 DSCP Default ECN Not-ECT ttl 64 id 27 protocol 6 offset (bytes) 0 flags [none] length: 588 192.128.2.2 > 192.128.1.1) ns3::TcpHeader (49153 > 7457 [ACK] Seq=12681 Ack=1 Win=32768 ns3::TcpOptionTS(2254;2176) ns3::TcpOptionEnd(EOL)) Payload Fragment [2680:3216] ns3::EthernetTrailer (fcs=0)
r 2.25583 /NodeList/6/DeviceList/4/$ns3::CsmaNetDevice/MacRx ns3::EthernetHeader ( length/type=0x800, source=00:00:00:00:00:17, destination=00:00:00:00:00:18) ns3::Ipv4Header (tos 0x0 DSCP Default ECN Not-ECT ttl 64 id 28 protocol 6 offset (bytes) 0 flags [none] length: 588 192.128.2.2 > 192.128.1.1) ns3::TcpHeader (49153 > 7457 [ACK] Seq=13217 Ack=1 Win=32768 ns3::TcpOptionTS(2254;2176) ns3::TcpOptionEnd(EOL)) Payload Fragment [3216:3752] ns3::EthernetTrailer (fcs=0)
r 2.25602 /NodeList/6/DeviceList/4/$ns3::CsmaNetDevice/MacRx ns3::EthernetHeader ( length/type=0x800, source=00:00:00:00:00:17, destination=00:00:00:00:00:18) ns3::Ipv4Header (tos 0x0 DSCP Default ECN Not-ECT ttl 64 id 29 protocol 6 offset (bytes) 0 flags [none] length: 588 192.128.2.2 > 192.128.1.1) ns3::TcpHeader (49153 > 7457 [ACK] Seq=13753 Ack=1 Win=32768 ns3::TcpOptionTS(2254;2176) ns3::TcpOptionEnd(EOL)) Payload Fragment [3752:4288] ns3::EthernetTrailer (fcs=0)
+ 2.25611 /NodeList/6/DeviceList/4/$ns3::CsmaNetDevice/TxQueue/Enqueue ns3::EthernetHeader ( length/type=0x800, source=00:00:00:00:00:18, destination=00:00:00:00:00:17) ns3::Ipv4Header (tos 0x0 DSCP Default ECN Not-ECT ttl 60 id 13 protocol 6 offset (bytes) 0 flags [none] length: 52 192.128.1.1 > 192.128.2.2) ns3::TcpHeader (7457 > 49153 [ACK] Seq=1 Ack=12681 Win=32768 ns3::TcpOptionTS(2256;2254) ns3::TcpOptionEnd(EOL)) ns3::EthernetTrailer (fcs=0)
r 2.2562 /NodeList/6/DeviceList/4/$ns3::CsmaNetDevice/MacRx ns3::EthernetHeader ( length/type=0x800, source=00:00:00:00:00:17, destination=00:00:00:00:00:18) ns3::Ipv4Header (tos 0x0 DSCP Default ECN Not-ECT ttl 64 id 30 protocol 6 offset (bytes) 0 flags [none] length: 588 192.128.2.2 > 192.128.1.1) ns3::TcpHeader (49153 > 7457 [ACK] Seq=14289 Ack=1 Win=32768 ns3::TcpOptionTS(2254;2176) ns3::TcpOptionEnd(EOL)) Payload Fragment [4288:4824] ns3::EthernetTrailer (fcs=0)
r 2.2563 /NodeList/6/DeviceList/4/$ns3::CsmaNetDevice/MacRx ns3::EthernetHeader ( length/type=0x800, source=00:00:00:00:00:17, destination=00:00:00:00:00:18) ns3::Ipv4Header (tos 0x0 DSCP Default ECN Not-ECT ttl 64 id 31 protocol 6 offset (bytes) 0 flags [none] length: 228 192.128.2.2 > 192.128.1.1) ns3::TcpHeader (49153 > 7457 [ACK] Seq=14825 Ack=1 Win=32768 ns3::TcpOptionTS(2254;2176) ns3::TcpOptionEnd(EOL)) Payload Fragment [4824:5000] ns3::EthernetTrailer (fcs=0)
+ 2.25655 /NodeList/6/DeviceList/4/$ns3::CsmaNetDevice/TxQueue/Enqueue ns3::EthernetHeader ( length/type=0x800, source=00:00:00:00:00:18, destination=00:00:00:00:00:17) ns3::Ipv4Header (tos 0x0 DSCP Default ECN Not-ECT ttl 60 id 14 protocol 6 offset (bytes) 0 flags [none] length: 52 192.128.1.1 > 192.128.2.2) ns3::TcpHeader (7457 > 49153 [ACK] Seq=1 Ack=13753 Win=32768 ns3::TcpOptionTS(2256;2254) ns3::TcpOptionEnd(EOL)) ns3::EthernetTrailer (fcs=0)
- 2.25669 /NodeList/6/DeviceList/4/$ns3::CsmaNetDevice/TxQueue/Dequeue ns3::EthernetHeader ( length/type=0x800, source=00:00:00:00:00:18, destination=00:00:00:00:00:17) ns3::Ipv4Header (tos 0x0 DSCP Default ECN Not-ECT ttl 60 id 12 protocol 6 offset (bytes) 0 flags [none] length: 52 192.128.1.1 > 192.128.2.2) ns3::TcpHeader (7457 > 49153 [ACK] Seq=1 Ack=11609 Win=32768 ns3::TcpOptionTS(2255;2254) ns3::TcpOptionEnd(EOL)) ns3::EthernetTrailer (fcs=0)