r 3.00001 /NodeList/3/DeviceList/2/$ns3::PointToPointNetDevice/MacRx ns3::PppHeader (Point-to-Point Protocol: IP (0x0021)) ns3::Ipv4Header (tos 0x0 DSCP Default ECN Not-ECT ttl 64 id 0 protocol 6 offset (bytes) 0 flags [none] length: 56 10.10.3.2 > 10.10.3.1) ns3::TcpHeader (49153 > 2300 [SYN] Seq=0 Ack=0 Win=65535 ns3::TcpOptionTS(3000;0) ns3::TcpOptionWinScale(2) ns3::TcpOptionSackPermitted([sack_perm]) ns3::TcpOptionEnd(EOL))
+ 3.00001 /NodeList/3/DeviceList/2/$ns3::PointToPointNetDevice/TxQueue/Enqueue ns3::PppHeader (Point-to-Point Protocol: IP (0x0021)) ns3::Ipv4Header (tos 0x0 DSCP Default ECN Not-ECT ttl 64 id 0 protocol 6 offset (bytes) 0 flags [none] length: 56 10.10.3.1 > 10.10.3.2) ns3::TcpHeader (2300 > 49153 [SYN|ACK] Seq=0 Ack=1 Win=65535 ns3::TcpOptionTS(3000;3000) ns3::TcpOptionWinScale(2) ns3::TcpOptionSackPermitted([sack_perm]) ns3::TcpOptionEnd(EOL))
- 3.00001 /NodeList/3/DeviceList/2/$ns3::PointToPointNetDevice/TxQueue/Dequeue ns3::PppHeader (Point-to-Point Protocol: IP (0x0021)) ns3::Ipv4Header (tos 0x0 DSCP Default ECN Not-ECT ttl 64 id 0 protocol 6 offset (bytes) 0 flags [none] length: 56 10.10.3.1 > 10.10.3.2) ns3::TcpHeader (2300 > 49153 [SYN|ACK] Seq=0 Ack=1 Win=65535 ns3::TcpOptionTS(3000;3000) ns3::TcpOptionWinScale(2) ns3::TcpOptionSackPermitted([sack_perm]) ns3::TcpOptionEnd(EOL))
r 3.00003 /NodeList/3/DeviceList/2/$ns3::PointToPointNetDevice/MacRx ns3::PppHeader (Point-to-Point Protocol: IP (0x0021)) ns3::Ipv4Header (tos 0x0 DSCP Default ECN Not-ECT ttl 64 id 1 protocol 6 offset (bytes) 0 flags [none] length: 52 10.10.3.2 > 10.10.3.1) ns3::TcpHeader (49153 > 2300 [ACK] Seq=1 Ack=1 Win=32768 ns3::TcpOptionTS(3000;3000) ns3::TcpOptionEnd(EOL))
r 3.04009 /NodeList/3/DeviceList/2/$ns3::PointToPointNetDevice/MacRx ns3::PppHeader (Point-to-Point Protocol: IP (0x0021)) ns3::Ipv4Header (tos 0x0 DSCP Default ECN Not-ECT ttl 64 id 2 protocol 6 offset (bytes) 0 flags [none] length: 588 10.10.3.2 > 10.10.3.1) ns3::TcpHeader (49153 > 2300 [ACK] Seq=1 Ack=1 Win=32768 ns3::TcpOptionTS(3040;3000) ns3::TcpOptionEnd(EOL)) Payload Fragment [0:536]
+ 3.04009 /NodeList/3/DeviceList/2/$ns3::PointToPointNetDevice/TxQueue/Enqueue ns3::PppHeader (Point-to-Point Protocol: IP (0x0021)) ns3::Ipv4Header (tos 0x0 DSCP Default ECN Not-ECT ttl 64 id 1 protocol 6 offset (bytes) 0 flags [none] length: 52 10.10.3.1 > 10.10.3.2) ns3::TcpHeader (2300 > 49153 [ACK] Seq=1 Ack=537 Win=32768 ns3::TcpOptionTS(3040;3040) ns3::TcpOptionEnd(EOL))
- 3.04009 /NodeList/3/DeviceList/2/$ns3::PointToPointNetDevice/TxQueue/Dequeue ns3::PppHeader (Point-to-Point Protocol: IP (0x0021)) ns3::Ipv4Header (tos 0x0 DSCP Default ECN Not-ECT ttl 64 id 1 protocol 6 offset (bytes) 0 flags [none] length: 52 10.10.3.1 > 10.10.3.2) ns3::TcpHeader (2300 > 49153 [ACK] Seq=1 Ack=537 Win=32768 ns3::TcpOptionTS(3040;3040) ns3::TcpOptionEnd(EOL))
r 3.04014 /NodeList/3/DeviceList/2/$ns3::PointToPointNetDevice/MacRx ns3::PppHeader (Point-to-Point Protocol: IP (0x0021)) ns3::Ipv4Header (tos 0x0 DSCP Default ECN Not-ECT ttl 64 id 3 protocol 6 offset (bytes) 0 flags [none] length: 588 10.10.3.2 > 10.10.3.1) ns3::TcpHeader (49153 > 2300 [ACK] Seq=537 Ack=1 Win=32768 ns3::TcpOptionTS(3040;3000) ns3::TcpOptionEnd(EOL)) Payload Fragment [536:1072]
r 3.0402 /NodeList/3/DeviceList/2/$ns3::PointToPointNetDevice/MacRx ns3::PppHeader (Point-to-Point Protocol: IP (0x0021)) ns3::Ipv4Header (tos 0x0 DSCP Default ECN Not-ECT ttl 64 id 4 protocol 6 offset (bytes) 0 flags [none] length: 588 10.10.3.2 > 10.10.3.1) ns3::TcpHeader (49153 > 2300 [ACK] Seq=1073 Ack=1 Win=32768 ns3::TcpOptionTS(3040;3000) ns3::TcpOptionEnd(EOL)) Payload Fragment [1072:1608]
+ 3.0402 /NodeList/3/DeviceList/2/$ns3::PointToPointNetDevice/TxQueue/Enqueue ns3::PppHeader (Point-to-Point Protocol: IP (0x0021)) ns3::Ipv4Header (tos 0x0 DSCP Default ECN Not-ECT ttl 64 id 2 protocol 6 offset (bytes) 0 flags [none] length: 52 10.10.3.1 > 10.10.3.2) ns3::TcpHeader (2300 > 49153 [ACK] Seq=1 Ack=1609 Win=32768 ns3::TcpOptionTS(3040;3040) ns3::TcpOptionEnd(EOL))
- 3.0402 /NodeList/3/DeviceList/2/$ns3::PointToPointNetDevice/TxQueue/Dequeue ns3::PppHeader (Point-to-Point Protocol: IP (0x0021)) ns3::Ipv4Header (tos 0x0 DSCP Default ECN Not-ECT ttl 64 id 2 protocol 6 offset (bytes) 0 flags [none] length: 52 10.10.3.1 > 10.10.3.2) ns3::TcpHeader (2300 > 49153 [ACK] Seq=1 Ack=1609 Win=32768 ns3::TcpOptionTS(3040;3040) ns3::TcpOptionEnd(EOL))
r 3.04026 /NodeList/3/DeviceList/2/$ns3::PointToPointNetDevice/MacRx ns3::PppHeader (Point-to-Point Protocol: IP (0x0021)) ns3::Ipv4Header (tos 0x0 DSCP Default ECN Not-ECT ttl 64 id 5 protocol 6 offset (bytes) 0 flags [none] length: 588 10.10.3.2 > 10.10.3.1) ns3::TcpHeader (49153 > 2300 [ACK] Seq=1609 Ack=1 Win=32768 ns3::TcpOptionTS(3040;3000) ns3::TcpOptionEnd(EOL)) Payload Fragment [1608:2144]
r 3.0403 /NodeList/3/DeviceList/2/$ns3::PointToPointNetDevice/MacRx ns3::PppHeader (Point-to-Point Protocol: IP (0x0021)) ns3::Ipv4Header (tos 0x0 DSCP Default ECN Not-ECT ttl 64 id 6 protocol 6 offset (bytes) 0 flags [none] length: 408 10.10.3.2 > 10.10.3.1) ns3::TcpHeader (49153 > 2300 [ACK] Seq=2145 Ack=1 Win=32768 ns3::TcpOptionTS(3040;3000) ns3::TcpOptionEnd(EOL)) Payload Fragment [2144:2500]
+ 3.0403 /NodeList/3/DeviceList/2/$ns3::PointToPointNetDevice/TxQueue/Enqueue ns3::PppHeader (Point-to-Point Protocol: IP (0x0021)) ns3::Ipv4Header (tos 0x0 DSCP Default ECN Not-ECT ttl 64 id 3 protocol 6 offset (bytes) 0 flags [none] length: 52 10.10.3.1 > 10.10.3.2) ns3::TcpHeader (2300 > 49153 [ACK] Seq=1 Ack=2501 Win=32768 ns3::TcpOptionTS(3040;3040) ns3::TcpOptionEnd(EOL))
- 3.0403 /NodeList/3/DeviceList/2/$ns3::PointToPointNetDevice/TxQueue/Dequeue ns3::PppHeader (Point-to-Point Protocol: IP (0x0021)) ns3::Ipv4Header (tos 0x0 DSCP Default ECN Not-ECT ttl 64 id 3 protocol 6 offset (bytes) 0 flags [none] length: 52 10.10.3.1 > 10.10.3.2) ns3::TcpHeader (2300 > 49153 [ACK] Seq=1 Ack=2501 Win=32768 ns3::TcpOptionTS(3040;3040) ns3::TcpOptionEnd(EOL))
r 3.08009 /NodeList/3/DeviceList/2/$ns3::PointToPointNetDevice/MacRx ns3::PppHeader (Point-to-Point Protocol: IP (0x0021)) ns3::Ipv4Header (tos 0x0 DSCP Default ECN Not-ECT ttl 64 id 7 protocol 6 offset (bytes) 0 flags [none] length: 588 10.10.3.2 > 10.10.3.1) ns3::TcpHeader (49153 > 2300 [ACK] Seq=2501 Ack=1 Win=32768 ns3::TcpOptionTS(3080;3040) ns3::TcpOptionEnd(EOL)) Payload Fragment [0:536]
r 3.08014 /NodeList/3/DeviceList/2/$ns3::PointToPointNetDevice/MacRx ns3::PppHeader (Point-to-Point Protocol: IP (0x0021)) ns3::Ipv4Header (tos 0x0 DSCP Default ECN Not-ECT ttl 64 id 8 protocol 6 offset (bytes) 0 flags [none] length: 588 10.10.3.2 > 10.10.3.1) ns3::TcpHeader (49153 > 2300 [ACK] Seq=3037 Ack=1 Win=32768 ns3::TcpOptionTS(3080;3040) ns3::TcpOptionEnd(EOL)) Payload Fragment [536:1072]
+ 3.08014 /NodeList/3/DeviceList/2/$ns3::PointToPointNetDevice/TxQueue/Enqueue ns3::PppHeader (Point-to-Point Protocol: IP (0x0021)) ns3::Ipv4Header (tos 0x0 DSCP Default ECN Not-ECT ttl 64 id 4 protocol 6 offset (bytes) 0 flags [none] length: 52 10.10.3.1 > 10.10.3.2) ns3::TcpHeader (2300 > 49153 [ACK] Seq=1 Ack=3573 Win=32768 ns3::TcpOptionTS(3080;3080) ns3::TcpOptionEnd(EOL))
- 3.08014 /NodeList/3/DeviceList/2/$ns3::PointToPointNetDevice/TxQueue/Dequeue ns3::PppHeader (Point-to-Point Protocol: IP (0x0021)) ns3::Ipv4Header (tos 0x0 DSCP Default ECN Not-ECT ttl 64 id 4 protocol 6 offset (bytes) 0 flags [none] length: 52 10.10.3.1 > 10.10.3.2) ns3::TcpHeader (2300 > 49153 [ACK] Seq=1 Ack=3573 Win=32768 ns3::TcpOptionTS(3080;3080) ns3::TcpOptionEnd(EOL))
r 3.0802 /NodeList/3/DeviceList/2/$ns3::PointToPointNetDevice/MacRx ns3::PppHeader (Point-to-Point Protocol: IP (0x0021)) ns3::Ipv4Header (tos 0x0 DSCP Default ECN Not-ECT ttl 64 id 9 protocol 6 offset (bytes) 0 flags [none] length: 588 10.10.3.2 > 10.10.3.1) ns3::TcpHeader (49153 > 2300 [ACK] Seq=3573 Ack=1 Win=32768 ns3::TcpOptionTS(3080;3040) ns3::TcpOptionEnd(EOL)) Payload Fragment [1072:1608]
r 3.08026 /NodeList/3/DeviceList/2/$ns3::PointToPointNetDevice/MacRx ns3::PppHeader (Point-to-Point Protocol: IP (0x0021)) ns3::Ipv4Header (tos 0x0 DSCP Default ECN Not-ECT ttl 64 id 10 protocol 6 offset (bytes) 0 flags [none] length: 588 10.10.3.2 > 10.10.3.1) ns3::TcpHeader (49153 > 2300 [ACK] Seq=4109 Ack=1 Win=32768 ns3::TcpOptionTS(3080;3040) ns3::TcpOptionEnd(EOL)) Payload Fragment [1608:2144]
+ 3.08026 /NodeList/3/DeviceList/2/$ns3::PointToPointNetDevice/TxQueue/Enqueue ns3::PppHeader (Point-to-Point Protocol: IP (0x0021)) ns3::Ipv4Header (tos 0x0 DSCP Default ECN Not-ECT ttl 64 id 5 protocol 6 offset (bytes) 0 flags [none] length: 52 10.10.3.1 > 10.10.3.2) ns3::TcpHeader (2300 > 49153 [ACK] Seq=1 Ack=4645 Win=32768 ns3::TcpOptionTS(3080;3080) ns3::TcpOptionEnd(EOL))
- 3.08026 /NodeList/3/DeviceList/2/$ns3::PointToPointNetDevice/TxQueue/Dequeue ns3::PppHeader (Point-to-Point Protocol: IP (0x0021)) ns3::Ipv4Header (tos 0x0 DSCP Default ECN Not-ECT ttl 64 id 5 protocol 6 offset (bytes) 0 flags [none] length: 52 10.10.3.1 > 10.10.3.2) ns3::TcpHeader (2300 > 49153 [ACK] Seq=1 Ack=4645 Win=32768 ns3::TcpOptionTS(3080;3080) ns3::TcpOptionEnd(EOL))
r 3.0803 /NodeList/3/DeviceList/2/$ns3::PointToPointNetDevice/MacRx ns3::PppHeader (Point-to-Point Protocol: IP (0x0021)) ns3::Ipv4Header (tos 0x0 DSCP Default ECN Not-ECT ttl 64 id 11 protocol 6 offset (bytes) 0 flags [none] length: 408 10.10.3.2 > 10.10.3.1) ns3::TcpHeader (49153 > 2300 [ACK] Seq=4645 Ack=1 Win=32768 ns3::TcpOptionTS(3080;3040) ns3::TcpOptionEnd(EOL)) Payload Fragment [2144:2500]
r 3.12009 /NodeList/3/DeviceList/2/$ns3::PointToPointNetDevice/MacRx ns3::PppHeader (Point-to-Point Protocol: IP (0x0021)) ns3::Ipv4Header (tos 0x0 DSCP Default ECN Not-ECT ttl 64 id 12 protocol 6 offset (bytes) 0 flags [none] length: 588 10.10.3.2 > 10.10.3.1) ns3::TcpHeader (49153 > 2300 [ACK] Seq=5001 Ack=1 Win=32768 ns3::TcpOptionTS(3120;3080) ns3::TcpOptionEnd(EOL)) Payload Fragment [0:536]
+ 3.12009 /NodeList/3/DeviceList/2/$ns3::PointToPointNetDevice/TxQueue/Enqueue ns3::PppHeader (Point-to-Point Protocol: IP (0x0021)) ns3::Ipv4Header (tos 0x0 DSCP Default ECN Not-ECT ttl 64 id 6 protocol 6 offset (bytes) 0 flags [none] length: 52 10.10.3.1 > 10.10.3.2) ns3::TcpHeader (2300 > 49153 [ACK] Seq=1 Ack=5537 Win=32768 ns3::TcpOptionTS(3120;3080) ns3::TcpOptionEnd(EOL))
- 3.12009 /NodeList/3/DeviceList/2/$ns3::PointToPointNetDevice/TxQueue/Dequeue ns3::PppHeader (Point-to-Point Protocol: IP (0x0021)) ns3::Ipv4Header (tos 0x0 DSCP Default ECN Not-ECT ttl 64 id 6 protocol 6 offset (bytes) 0 flags [none] length: 52 10.10.3.1 > 10.10.3.2) ns3::TcpHeader (2300 > 49153 [ACK] Seq=1 Ack=5537 Win=32768 ns3::TcpOptionTS(3120;3080) ns3::TcpOptionEnd(EOL))
r 3.12014 /NodeList/3/DeviceList/2/$ns3::PointToPointNetDevice/MacRx ns3::PppHeader (Point-to-Point Protocol: IP (0x0021)) ns3::Ipv4Header (tos 0x0 DSCP Default ECN Not-ECT ttl 64 id 13 protocol 6 offset (bytes) 0 flags [none] length: 588 10.10.3.2 > 10.10.3.1) ns3::TcpHeader (49153 > 2300 [ACK] Seq=5537 Ack=1 Win=32768 ns3::TcpOptionTS(3120;3080) ns3::TcpOptionEnd(EOL)) Payload Fragment [536:1072]
r 3.1202 /NodeList/3/DeviceList/2/$ns3::PointToPointNetDevice/MacRx ns3::PppHeader (Point-to-Point Protocol: IP (0x0021)) ns3::Ipv4Header (tos 0x0 DSCP Default ECN Not-ECT ttl 64 id 14 protocol 6 offset (bytes) 0 flags [none] length: 588 10.10.3.2 > 10.10.3.1) ns3::TcpHeader (49153 > 2300 [ACK] Seq=6073 Ack=1 Win=32768 ns3::TcpOptionTS(3120;3080) ns3::TcpOptionEnd(EOL)) Payload Fragment [1072:1608]
+ 3.1202 /NodeList/3/DeviceList/2/$ns3::PointToPointNetDevice/TxQueue/Enqueue ns3::PppHeader (Point-to-Point Protocol: IP (0x0021)) ns3::Ipv4Header (tos 0x0 DSCP Default ECN Not-ECT ttl 64 id 7 protocol 6 offset (bytes) 0 flags [none] length: 52 10.10.3.1 > 10.10.3.2) ns3::TcpHeader (2300 > 49153 [ACK] Seq=1 Ack=6609 Win=32768 ns3::TcpOptionTS(3120;3120) ns3::TcpOptionEnd(EOL))
- 3.1202 /NodeList/3/DeviceList/2/$ns3::PointToPointNetDevice/TxQueue/Dequeue ns3::PppHeader (Point-to-Point Protocol: IP (0x0021)) ns3::Ipv4Header (tos 0x0 DSCP Default ECN Not-ECT ttl 64 id 7 protocol 6 offset (bytes) 0 flags [none] length: 52 10.10.3.1 > 10.10.3.2) ns3::TcpHeader (2300 > 49153 [ACK] Seq=1 Ack=6609 Win=32768 ns3::TcpOptionTS(3120;3120) ns3::TcpOptionEnd(EOL))
r 3.12026 /NodeList/3/DeviceList/2/$ns3::PointToPointNetDevice/MacRx ns3::PppHeader (Point-to-Point Protocol: IP (0x0021)) ns3::Ipv4Header (tos 0x0 DSCP Default ECN Not-ECT ttl 64 id 15 protocol 6 offset (bytes) 0 flags [none] length: 588 10.10.3.2 > 10.10.3.1) ns3::TcpHeader (49153 > 2300 [ACK] Seq=6609 Ack=1 Win=32768 ns3::TcpOptionTS(3120;3080) ns3::TcpOptionEnd(EOL)) Payload Fragment [1608:2144]
r 3.1203 /NodeList/3/DeviceList/2/$ns3::PointToPointNetDevice/MacRx ns3::PppHeader (Point-to-Point Protocol: IP (0x0021)) ns3::Ipv4Header (tos 0x0 DSCP Default ECN Not-ECT ttl 64 id 16 protocol 6 offset (bytes) 0 flags [none] length: 408 10.10.3.2 > 10.10.3.1) ns3::TcpHeader (49153 > 2300 [ACK] Seq=7145 Ack=1 Win=32768 ns3::TcpOptionTS(3120;3080) ns3::TcpOptionEnd(EOL)) Payload Fragment [2144:2500]
+ 3.1203 /NodeList/3/DeviceList/2/$ns3::PointToPointNetDevice/TxQueue/Enqueue ns3::PppHeader (Point-to-Point Protocol: IP (0x0021)) ns3::Ipv4Header (tos 0x0 DSCP Default ECN Not-ECT ttl 64 id 8 protocol 6 offset (bytes) 0 flags [none] length: 52 10.10.3.1 > 10.10.3.2) ns3::TcpHeader (2300 > 49153 [ACK] Seq=1 Ack=7501 Win=32768 ns3::TcpOptionTS(3120;3120) ns3::TcpOptionEnd(EOL))
- 3.1203 /NodeList/3/DeviceList/2/$ns3::PointToPointNetDevice/TxQueue/Dequeue ns3::PppHeader (Point-to-Point Protocol: IP (0x0021)) ns3::Ipv4Header (tos 0x0 DSCP Default ECN Not-ECT ttl 64 id 8 protocol 6 offset (bytes) 0 flags [none] length: 52 10.10.3.1 > 10.10.3.2) ns3::TcpHeader (2300 > 49153 [ACK] Seq=1 Ack=7501 Win=32768 ns3::TcpOptionTS(3120;3120) ns3::TcpOptionEnd(EOL))
r 3.16009 /NodeList/3/DeviceList/2/$ns3::PointToPointNetDevice/MacRx ns3::PppHeader (Point-to-Point Protocol: IP (0x0021)) ns3::Ipv4Header (tos 0x0 DSCP Default ECN Not-ECT ttl 64 id 17 protocol 6 offset (bytes) 0 flags [none] length: 588 10.10.3.2 > 10.10.3.1) ns3::TcpHeader (49153 > 2300 [ACK] Seq=7501 Ack=1 Win=32768 ns3::TcpOptionTS(3160;3120) ns3::TcpOptionEnd(EOL)) Payload Fragment [0:536]
r 3.16014 /NodeList/3/DeviceList/2/$ns3::PointToPointNetDevice/MacRx ns3::PppHeader (Point-to-Point Protocol: IP (0x0021)) ns3::Ipv4Header (tos 0x0 DSCP Default ECN Not-ECT ttl 64 id 18 protocol 6 offset (bytes) 0 flags [none] length: 588 10.10.3.2 > 10.10.3.1) ns3::TcpHeader (49153 > 2300 [ACK] Seq=8037 Ack=1 Win=32768 ns3::TcpOptionTS(3160;3120) ns3::TcpOptionEnd(EOL)) Payload Fragment [536:1072]
+ 3.16014 /NodeList/3/DeviceList/2/$ns3::PointToPointNetDevice/TxQueue/Enqueue ns3::PppHeader (Point-to-Point Protocol: IP (0x0021)) ns3::Ipv4Header (tos 0x0 DSCP Default ECN Not-ECT ttl 64 id 9 protocol 6 offset (bytes) 0 flags [none] length: 52 10.10.3.1 > 10.10.3.2) ns3::TcpHeader (2300 > 49153 [ACK] Seq=1 Ack=8573 Win=32768 ns3::TcpOptionTS(3160;3160) ns3::TcpOptionEnd(EOL))
- 3.16014 /NodeList/3/DeviceList/2/$ns3::PointToPointNetDevice/TxQueue/Dequeue ns3::PppHeader (Point-to-Point Protocol: IP (0x0021)) ns3::Ipv4Header (tos 0x0 DSCP Default ECN Not-ECT ttl 64 id 9 protocol 6 offset (bytes) 0 flags [none] length: 52 10.10.3.1 > 10.10.3.2) ns3::TcpHeader (2300 > 49153 [ACK] Seq=1 Ack=8573 Win=32768 ns3::TcpOptionTS(3160;3160) ns3::TcpOptionEnd(EOL))
r 3.1602 /NodeList/3/DeviceList/2/$ns3::PointToPointNetDevice/MacRx ns3::PppHeader (Point-to-Point Protocol: IP (0x0021)) ns3::Ipv4Header (tos 0x0 DSCP Default ECN Not-ECT ttl 64 id 19 protocol 6 offset (bytes) 0 flags [none] length: 588 10.10.3.2 > 10.10.3.1) ns3::TcpHeader (49153 > 2300 [ACK] Seq=8573 Ack=1 Win=32768 ns3::TcpOptionTS(3160;3120) ns3::TcpOptionEnd(EOL)) Payload Fragment [1072:1608]
r 3.16026 /NodeList/3/DeviceList/2/$ns3::PointToPointNetDevice/MacRx ns3::PppHeader (Point-to-Point Protocol: IP (0x0021)) ns3::Ipv4Header (tos 0x0 DSCP Default ECN Not-ECT ttl 64 id 20 protocol 6 offset (bytes) 0 flags [none] length: 588 10.10.3.2 > 10.10.3.1) ns3::TcpHeader (49153 > 2300 [ACK] Seq=9109 Ack=1 Win=32768 ns3::TcpOptionTS(3160;3120) ns3::TcpOptionEnd(EOL)) Payload Fragment [1608:2144]
+ 3.16026 /NodeList/3/DeviceList/2/$ns3::PointToPointNetDevice/TxQueue/Enqueue ns3::PppHeader (Point-to-Point Protocol: IP (0x0021)) ns3::Ipv4Header (tos 0x0 DSCP Default ECN Not-ECT ttl 64 id 10 protocol 6 offset (bytes) 0 flags [none] length: 52 10.10.3.1 > 10.10.3.2) ns3::TcpHeader (2300 > 49153 [ACK] Seq=1 Ack=9645 Win=32768 ns3::TcpOptionTS(3160;3160) ns3::TcpOptionEnd(EOL))
- 3.16026 /NodeList/3/DeviceList/2/$ns3::PointToPointNetDevice/TxQueue/Dequeue ns3::PppHeader (Point-to-Point Protocol: IP (0x0021)) ns3::Ipv4Header (tos 0x0 DSCP Default ECN Not-ECT ttl 64 id 10 protocol 6 offset (bytes) 0 flags [none] length: 52 10.10.3.1 > 10.10.3.2) ns3::TcpHeader (2300 > 49153 [ACK] Seq=1 Ack=9645 Win=32768 ns3::TcpOptionTS(3160;3160) ns3::TcpOptionEnd(EOL))
r 3.1603 /NodeList/3/DeviceList/2/$ns3::PointToPointNetDevice/MacRx ns3::PppHeader (Point-to-Point Protocol: IP (0x0021)) ns3::Ipv4Header (tos 0x0 DSCP Default ECN Not-ECT ttl 64 id 21 protocol 6 offset (bytes) 0 flags [none] length: 408 10.10.3.2 > 10.10.3.1) ns3::TcpHeader (49153 > 2300 [ACK] Seq=9645 Ack=1 Win=32768 ns3::TcpOptionTS(3160;3120) ns3::TcpOptionEnd(EOL)) Payload Fragment [2144:2500]
r 3.20009 /NodeList/3/DeviceList/2/$ns3::PointToPointNetDevice/MacRx ns3::PppHeader (Point-to-Point Protocol: IP (0x0021)) ns3::Ipv4Header (tos 0x0 DSCP Default ECN Not-ECT ttl 64 id 22 protocol 6 offset (bytes) 0 flags [none] length: 588 10.10.3.2 > 10.10.3.1) ns3::TcpHeader (49153 > 2300 [ACK] Seq=10001 Ack=1 Win=32768 ns3::TcpOptionTS(3200;3160) ns3::TcpOptionEnd(EOL)) Payload Fragment [0:536]
+ 3.20009 /NodeList/3/DeviceList/2/$ns3::PointToPointNetDevice/TxQueue/Enqueue ns3::PppHeader (Point-to-Point Protocol: IP (0x0021)) ns3::Ipv4Header (tos 0x0 DSCP Default ECN Not-ECT ttl 64 id 11 protocol 6 offset (bytes) 0 flags [none] length: 52 10.10.3.1 > 10.10.3.2) ns3::TcpHeader (2300 > 49153 [ACK] Seq=1 Ack=10537 Win=32768 ns3::TcpOptionTS(3200;3160) ns3::TcpOptionEnd(EOL))
- 3.20009 /NodeList/3/DeviceList/2/$ns3::PointToPointNetDevice/TxQueue/Dequeue ns3::PppHeader (Point-to-Point Protocol: IP (0x0021)) ns3::Ipv4Header (tos 0x0 DSCP Default ECN Not-ECT ttl 64 id 11 protocol 6 offset (bytes) 0 flags [none] length: 52 10.10.3.1 > 10.10.3.2) ns3::TcpHeader (2300 > 49153 [ACK] Seq=1 Ack=10537 Win=32768 ns3::TcpOptionTS(3200;3160) ns3::TcpOptionEnd(EOL))
r 3.20014 /NodeList/3/DeviceList/2/$ns3::PointToPointNetDevice/MacRx ns3::PppHeader (Point-to-Point Protocol: IP (0x0021)) ns3::Ipv4Header (tos 0x0 DSCP Default ECN Not-ECT ttl 64 id 23 protocol 6 offset (bytes) 0 flags [none] length: 588 10.10.3.2 > 10.10.3.1) ns3::TcpHeader (49153 > 2300 [ACK] Seq=10537 Ack=1 Win=32768 ns3::TcpOptionTS(3200;3160) ns3::TcpOptionEnd(EOL)) Payload Fragment [536:1072]
r 3.2002 /NodeList/3/DeviceList/2/$ns3::PointToPointNetDevice/MacRx ns3::PppHeader (Point-to-Point Protocol: IP (0x0021)) ns3::Ipv4Header (tos 0x0 DSCP Default ECN Not-ECT ttl 64 id 24 protocol 6 offset (bytes) 0 flags [none] length: 588 10.10.3.2 > 10.10.3.1) ns3::TcpHeader (49153 > 2300 [ACK] Seq=11073 Ack=1 Win=32768 ns3::TcpOptionTS(3200;3160) ns3::TcpOptionEnd(EOL)) Payload Fragment [1072:1608]
+ 3.2002 /NodeList/3/DeviceList/2/$ns3::PointToPointNetDevice/TxQueue/Enqueue ns3::PppHeader (Point-to-Point Protocol: IP (0x0021)) ns3::Ipv4Header (tos 0x0 DSCP Default ECN Not-ECT ttl 64 id 12 protocol 6 offset (bytes) 0 flags [none] length: 52 10.10.3.1 > 10.10.3.2) ns3::TcpHeader (2300 > 49153 [ACK] Seq=1 Ack=11609 Win=32768 ns3::TcpOptionTS(3200;3200) ns3::TcpOptionEnd(EOL))
- 3.2002 /NodeList/3/DeviceList/2/$ns3::PointToPointNetDevice/TxQueue/Dequeue ns3::PppHeader (Point-to-Point Protocol: IP (0x0021)) ns3::Ipv4Header (tos 0x0 DSCP Default ECN Not-ECT ttl 64 id 12 protocol 6 offset (bytes) 0 flags [none] length: 52 10.10.3.1 > 10.10.3.2) ns3::TcpHeader (2300 > 49153 [ACK] Seq=1 Ack=11609 Win=32768 ns3::TcpOptionTS(3200;3200) ns3::TcpOptionEnd(EOL))
r 3.20026 /NodeList/3/DeviceList/2/$ns3::PointToPointNetDevice/MacRx ns3::PppHeader (Point-to-Point Protocol: IP (0x0021)) ns3::Ipv4Header (tos 0x0 DSCP Default ECN Not-ECT ttl 64 id 25 protocol 6 offset (bytes) 0 flags [none] length: 588 10.10.3.2 > 10.10.3.1) ns3::TcpHeader (49153 > 2300 [ACK] Seq=11609 Ack=1 Win=32768 ns3::TcpOptionTS(3200;3160) ns3::TcpOptionEnd(EOL)) Payload Fragment [1608:2144]
r 3.2003 /NodeList/3/DeviceList/2/$ns3::PointToPointNetDevice/MacRx ns3::PppHeader (Point-to-Point Protocol: IP (0x0021)) ns3::Ipv4Header (tos 0x0 DSCP Default ECN Not-ECT ttl 64 id 26 protocol 6 offset (bytes) 0 flags [none] length: 408 10.10.3.2 > 10.10.3.1) ns3::TcpHeader (49153 > 2300 [ACK] Seq=12145 Ack=1 Win=32768 ns3::TcpOptionTS(3200;3160) ns3::TcpOptionEnd(EOL)) Payload Fragment [2144:2500]
+ 3.2003 /NodeList/3/DeviceList/2/$ns3::PointToPointNetDevice/TxQueue/Enqueue ns3::PppHeader (Point-to-Point Protocol: IP (0x0021)) ns3::Ipv4Header (tos 0x0 DSCP Default ECN Not-ECT ttl 64 id 13 protocol 6 offset (bytes) 0 flags [none] length: 52 10.10.3.1 > 10.10.3.2) ns3::TcpHeader (2300 > 49153 [ACK] Seq=1 Ack=12501 Win=32768 ns3::TcpOptionTS(3200;3200) ns3::TcpOptionEnd(EOL))
- 3.2003 /NodeList/3/DeviceList/2/$ns3::PointToPointNetDevice/TxQueue/Dequeue ns3::PppHeader (Point-to-Point Protocol: IP (0x0021)) ns3::Ipv4Header (tos 0x0 DSCP Default ECN Not-ECT ttl 64 id 13 protocol 6 offset (bytes) 0 flags [none] length: 52 10.10.3.1 > 10.10.3.2) ns3::TcpHeader (2300 > 49153 [ACK] Seq=1 Ack=12501 Win=32768 ns3::TcpOptionTS(3200;3200) ns3::TcpOptionEnd(EOL))
r 3.24009 /NodeList/3/DeviceList/2/$ns3::PointToPointNetDevice/MacRx ns3::PppHeader (Point-to-Point Protocol: IP (0x0021)) ns3::Ipv4Header (tos 0x0 DSCP Default ECN Not-ECT ttl 64 id 27 protocol 6 offset (bytes) 0 flags [none] length: 588 10.10.3.2 > 10.10.3.1) ns3::TcpHeader (49153 > 2300 [ACK] Seq=12501 Ack=1 Win=32768 ns3::TcpOptionTS(3240;3200) ns3::TcpOptionEnd(EOL)) Payload Fragment [0:536]
r 3.24014 /NodeList/3/DeviceList/2/$ns3::PointToPointNetDevice/MacRx ns3::PppHeader (Point-to-Point Protocol: IP (0x0021)) ns3::Ipv4Header (tos 0x0 DSCP Default ECN Not-ECT ttl 64 id 28 protocol 6 offset (bytes) 0 flags [none] length: 588 10.10.3.2 > 10.10.3.1) ns3::TcpHeader (49153 > 2300 [ACK] Seq=13037 Ack=1 Win=32768 ns3::TcpOptionTS(3240;3200) ns3::TcpOptionEnd(EOL)) Payload Fragment [536:1072]
+ 3.24014 /NodeList/3/DeviceList/2/$ns3::PointToPointNetDevice/TxQueue/Enqueue ns3::PppHeader (Point-to-Point Protocol: IP (0x0021)) ns3::Ipv4Header (tos 0x0 DSCP Default ECN Not-ECT ttl 64 id 14 protocol 6 offset (bytes) 0 flags [none] length: 52 10.10.3.1 > 10.10.3.2) ns3::TcpHeader (2300 > 49153 [ACK] Seq=1 Ack=13573 Win=32768 ns3::TcpOptionTS(3240;3240) ns3::TcpOptionEnd(EOL))
- 3.24014 /NodeList/3/DeviceList/2/$ns3::PointToPointNetDevice/TxQueue/Dequeue ns3::PppHeader (Point-to-Point Protocol: IP (0x0021)) ns3::Ipv4Header (tos 0x0 DSCP Default ECN Not-ECT ttl 64 id 14 protocol 6 offset (bytes) 0 flags [none] length: 52 10.10.3.1 > 10.10.3.2) ns3::TcpHeader (2300 > 49153 [ACK] Seq=1 Ack=13573 Win=32768 ns3::TcpOptionTS(3240;3240) ns3::TcpOptionEnd(EOL))
r 3.2402 /NodeList/3/DeviceList/2/$ns3::PointToPointNetDevice/MacRx ns3::PppHeader (Point-to-Point Protocol: IP (0x0021)) ns3::Ipv4Header (tos 0x0 DSCP Default ECN Not-ECT ttl 64 id 29 protocol 6 offset (bytes) 0 flags [none] length: 588 10.10.3.2 > 10.10.3.1) ns3::TcpHeader (49153 > 2300 [ACK] Seq=13573 Ack=1 Win=32768 ns3::TcpOptionTS(3240;3200) ns3::TcpOptionEnd(EOL)) Payload Fragment [1072:1608]
r 3.24026 /NodeList/3/DeviceList/2/$ns3::PointToPointNetDevice/MacRx ns3::PppHeader (Point-to-Point Protocol: IP (0x0021)) ns3::Ipv4Header (tos 0x0 DSCP Default ECN Not-ECT ttl 64 id 30 protocol 6 offset (bytes) 0 flags [none] length: 588 10.10.3.2 > 10.10.3.1) ns3::TcpHeader (49153 > 2300 [ACK] Seq=14109 Ack=1 Win=32768 ns3::TcpOptionTS(3240;3200) ns3::TcpOptionEnd(EOL)) Payload Fragment [1608:2144]
+ 3.24026 /NodeList/3/DeviceList/2/$ns3::PointToPointNetDevice/TxQueue/Enqueue ns3::PppHeader (Point-to-Point Protocol: IP (0x0021)) ns3::Ipv4Header (tos 0x0 DSCP Default ECN Not-ECT ttl 64 id 15 protocol 6 offset (bytes) 0 flags [none] length: 52 10.10.3.1 > 10.10.3.2) ns3::TcpHeader (2300 > 49153 [ACK] Seq=1 Ack=14645 Win=32768 ns3::TcpOptionTS(3240;3240) ns3::TcpOptionEnd(EOL))
- 3.24026 /NodeList/3/DeviceList/2/$ns3::PointToPointNetDevice/TxQueue/Dequeue ns3::PppHeader (Point-to-Point Protocol: IP (0x0021)) ns3::Ipv4Header (tos 0x0 DSCP Default ECN Not-ECT ttl 64 id 15 protocol 6 offset (bytes) 0 flags [none] length: 52 10.10.3.1 > 10.10.3.2) ns3::TcpHeader (2300 > 49153 [ACK] Seq=1 Ack=14645 Win=32768 ns3::TcpOptionTS(3240;3240) ns3::TcpOptionEnd(EOL))
r 3.2403 /NodeList/3/DeviceList/2/$ns3::PointToPointNetDevice/MacRx ns3::PppHeader (Point-to-Point Protocol: IP (0x0021)) ns3::Ipv4Header (tos 0x0 DSCP Default ECN Not-ECT ttl 64 id 31 protocol 6 offset (bytes) 0 flags [none] length: 408 10.10.3.2 > 10.10.3.1) ns3::TcpHeader (49153 > 2300 [ACK] Seq=14645 Ack=1 Win=32768 ns3::TcpOptionTS(3240;3200) ns3::TcpOptionEnd(EOL)) Payload Fragment [2144:2500]
r 3.28009 /NodeList/3/DeviceList/2/$ns3::PointToPointNetDevice/MacRx ns3::PppHeader (Point-to-Point Protocol: IP (0x0021)) ns3::Ipv4Header (tos 0x0 DSCP Default ECN Not-ECT ttl 64 id 32 protocol 6 offset (bytes) 0 flags [none] length: 588 10.10.3.2 > 10.10.3.1) ns3::TcpHeader (49153 > 2300 [ACK] Seq=15001 Ack=1 Win=32768 ns3::TcpOptionTS(3280;3240) ns3::TcpOptionEnd(EOL)) Payload Fragment [0:536]
+ 3.28009 /NodeList/3/DeviceList/2/$ns3::PointToPointNetDevice/TxQueue/Enqueue ns3::PppHeader (Point-to-Point Protocol: IP (0x0021)) ns3::Ipv4Header (tos 0x0 DSCP Default ECN Not-ECT ttl 64 id 16 protocol 6 offset (bytes) 0 flags [none] length: 52 10.10.3.1 > 10.10.3.2) ns3::TcpHeader (2300 > 49153 [ACK] Seq=1 Ack=15537 Win=32768 ns3::TcpOptionTS(3280;3240) ns3::TcpOptionEnd(EOL))
- 3.28009 /NodeList/3/DeviceList/2/$ns3::PointToPointNetDevice/TxQueue/Dequeue ns3::PppHeader (Point-to-Point Protocol: IP (0x0021)) ns3::Ipv4Header (tos 0x0 DSCP Default ECN Not-ECT ttl 64 id 16 protocol 6 offset (bytes) 0 flags [none] length: 52 10.10.3.1 > 10.10.3.2) ns3::TcpHeader (2300 > 49153 [ACK] Seq=1 Ack=15537 Win=32768 ns3::TcpOptionTS(3280;3240) ns3::TcpOptionEnd(EOL))
r 3.28014 /NodeList/3/DeviceList/2/$ns3::PointToPointNetDevice/MacRx ns3::PppHeader (Point-to-Point Protocol: IP (0x0021)) ns3::Ipv4Header (tos 0x0 DSCP Default ECN Not-ECT ttl 64 id 33 protocol 6 offset (bytes) 0 flags [none] length: 588 10.10.3.2 > 10.10.3.1) ns3::TcpHeader (49153 > 2300 [ACK] Seq=15537 Ack=1 Win=32768 ns3::TcpOptionTS(3280;3240) ns3::TcpOptionEnd(EOL)) Payload Fragment [536:1072]
r 3.2802 /NodeList/3/DeviceList/2/$ns3::PointToPointNetDevice/MacRx ns3::PppHeader (Point-to-Point Protocol: IP (0x0021)) ns3::Ipv4Header (tos 0x0 DSCP Default ECN Not-ECT ttl 64 id 34 protocol 6 offset (bytes) 0 flags [none] length: 588 10.10.3.2 > 10.10.3.1) ns3::TcpHeader (49153 > 2300 [ACK] Seq=16073 Ack=1 Win=32768 ns3::TcpOptionTS(3280;3240) ns3::TcpOptionEnd(EOL)) Payload Fragment [1072:1608]
+ 3.2802 /NodeList/3/DeviceList/2/$ns3::PointToPointNetDevice/TxQueue/Enqueue ns3::PppHeader (Point-to-Point Protocol: IP (0x0021)) ns3::Ipv4Header (tos 0x0 DSCP Default ECN Not-ECT ttl 64 id 17 protocol 6 offset (bytes) 0 flags [none] length: 52 10.10.3.1 > 10.10.3.2) ns3::TcpHeader (2300 > 49153 [ACK] Seq=1 Ack=16609 Win=32768 ns3::TcpOptionTS(3280;3280) ns3::TcpOptionEnd(EOL))
- 3.2802 /NodeList/3/DeviceList/2/$ns3::PointToPointNetDevice/TxQueue/Dequeue ns3::PppHeader (Point-to-Point Protocol: IP (0x0021)) ns3::Ipv4Header (tos 0x0 DSCP Default ECN Not-ECT ttl 64 id 17 protocol 6 offset (bytes) 0 flags [none] length: 52 10.10.3.1 > 10.10.3.2) ns3::TcpHeader (2300 > 49153 [ACK] Seq=1 Ack=16609 Win=32768 ns3::TcpOptionTS(3280;3280) ns3::TcpOptionEnd(EOL))
r 3.28026 /NodeList/3/DeviceList/2/$ns3::PointToPointNetDevice/MacRx ns3::PppHeader (Point-to-Point Protocol: IP (0x0021)) ns3::Ipv4Header (tos 0x0 DSCP Default ECN Not-ECT ttl 64 id 35 protocol 6 offset (bytes) 0 flags [none] length: 588 10.10.3.2 > 10.10.3.1) ns3::TcpHeader (49153 > 2300 [ACK] Seq=16609 Ack=1 Win=32768 ns3::TcpOptionTS(3280;3240) ns3::TcpOptionEnd(EOL)) Payload Fragment [1608:2144]
r 3.2803 /NodeList/3/DeviceList/2/$ns3::PointToPointNetDevice/MacRx ns3::PppHeader (Point-to-Point Protocol: IP (0x0021)) ns3::Ipv4Header (tos 0x0 DSCP Default ECN Not-ECT ttl 64 id 36 protocol 6 offset (bytes) 0 flags [none] length: 408 10.10.3.2 > 10.10.3.1) ns3::TcpHeader (49153 > 2300 [ACK] Seq=17145 Ack=1 Win=32768 ns3::TcpOptionTS(3280;3240) ns3::TcpOptionEnd(EOL)) Payload Fragment [2144:2500]
+ 3.2803 /NodeList/3/DeviceList/2/$ns3::PointToPointNetDevice/TxQueue/Enqueue ns3::PppHeader (Point-to-Point Protocol: IP (0x0021)) ns3::Ipv4Header (tos 0x0 DSCP Default ECN Not-ECT ttl 64 id 18 protocol 6 offset (bytes) 0 flags [none] length: 52 10.10.3.1 > 10.10.3.2) ns3::TcpHeader (2300 > 49153 [ACK] Seq=1 Ack=17501 Win=32768 ns3::TcpOptionTS(3280;3280) ns3::TcpOptionEnd(EOL))
- 3.2803 /NodeList/3/DeviceList/2/$ns3::PointToPointNetDevice/TxQueue/Dequeue ns3::PppHeader (Point-to-Point Protocol: IP (0x0021)) ns3::Ipv4Header (tos 0x0 DSCP Default ECN Not-ECT ttl 64 id 18 protocol 6 offset (bytes) 0 flags [none] length: 52 10.10.3.1 > 10.10.3.2) ns3::TcpHeader (2300 > 49153 [ACK] Seq=1 Ack=17501 Win=32768 ns3::TcpOptionTS(3280;3280) ns3::TcpOptionEnd(EOL))
r 3.32009 /NodeList/3/DeviceList/2/$ns3::PointToPointNetDevice/MacRx ns3::PppHeader (Point-to-Point Protocol: IP (0x0021)) ns3::Ipv4Header (tos 0x0 DSCP Default ECN Not-ECT ttl 64 id 37 protocol 6 offset (bytes) 0 flags [none] length: 588 10.10.3.2 > 10.10.3.1) ns3::TcpHeader (49153 > 2300 [ACK] Seq=17501 Ack=1 Win=32768 ns3::TcpOptionTS(3320;3280) ns3::TcpOptionEnd(EOL)) Payload Fragment [0:536]