r 2.00519 /NodeList/1/DeviceList/0/$ns3::CsmaNetDevice/MacRx ns3::EthernetHeader ( length/type=0x806, source=00:00:00:00:00:03, destination=ff:ff:ff:ff:ff:ff) ns3::ArpHeader (request source mac: 00-06-00:00:00:00:00:03 source ipv4: 192.128.1.3 dest ipv4: 192.128.1.1) Payload (size=18) ns3::EthernetTrailer (fcs=0)
r 2.01428 /NodeList/1/DeviceList/0/$ns3::CsmaNetDevice/MacRx ns3::EthernetHeader ( length/type=0x806, source=00:00:00:00:00:01, destination=ff:ff:ff:ff:ff:ff) ns3::ArpHeader (request source mac: 00-06-00:00:00:00:00:01 source ipv4: 192.128.1.1 dest ipv4: 192.128.1.3) Payload (size=18) ns3::EthernetTrailer (fcs=0)
