r 3.00001 /NodeList/3/DeviceList/2/$ns3::PointToPointNetDevice/MacRx ns3::PppHeader (Point-to-Point Protocol: IP (0x0021)) ns3::Ipv4Header (tos 0x0 DSCP Default ECN Not-ECT ttl 64 id 0 protocol 6 offset (bytes) 0 flags [none] length: 56 10.10.3.2 > 10.10.3.1) ns3::TcpHeader (49153 > 2300 [SYN] Seq=0 Ack=0 Win=65535 ns3::TcpOptionTS(3000;0) ns3::TcpOptionWinScale(2) ns3::TcpOptionSackPermitted([sack_perm]) ns3::TcpOptionEnd(EOL))
+ 3.00001 /NodeList/3/DeviceList/2/$ns3::PointToPointNetDevice/TxQueue/Enqueue ns3::PppHeader (Point-to-Point Protocol: IP (0x0021)) ns3::Ipv4Header (tos 0x0 DSCP Default ECN Not-ECT ttl 64 id 0 protocol 6 offset (bytes) 0 flags [none] length: 40 10.10.3.1 > 10.10.3.2) ns3::TcpHeader (2300 > 49153 [RST|ACK] Seq=0 Ack=1 Win=65535)
- 3.00001 /NodeList/3/DeviceList/2/$ns3::PointToPointNetDevice/TxQueue/Dequeue ns3::PppHeader (Point-to-Point Protocol: IP (0x0021)) ns3::Ipv4Header (tos 0x0 DSCP Default ECN Not-ECT ttl 64 id 0 protocol 6 offset (bytes) 0 flags [none] length: 40 10.10.3.1 > 10.10.3.2) ns3::TcpHeader (2300 > 49153 [RST|ACK] Seq=0 Ack=1 Win=65535)
r 6.00001 /NodeList/3/DeviceList/2/$ns3::PointToPointNetDevice/MacRx ns3::PppHeader (Point-to-Point Protocol: IP (0x0021)) ns3::Ipv4Header (tos 0x0 DSCP Default ECN Not-ECT ttl 64 id 1 protocol 6 offset (bytes) 0 flags [none] length: 56 10.10.3.2 > 10.10.3.1) ns3::TcpHeader (49153 > 2300 [SYN] Seq=0 Ack=0 Win=65535 ns3::TcpOptionTS(6000;0) ns3::TcpOptionWinScale(2) ns3::TcpOptionSackPermitted([sack_perm]) ns3::TcpOptionEnd(EOL))
+ 6.00001 /NodeList/3/DeviceList/2/$ns3::PointToPointNetDevice/TxQueue/Enqueue ns3::PppHeader (Point-to-Point Protocol: IP (0x0021)) ns3::Ipv4Header (tos 0x0 DSCP Default ECN Not-ECT ttl 64 id 1 protocol 6 offset (bytes) 0 flags [none] length: 40 10.10.3.1 > 10.10.3.2) ns3::TcpHeader (2300 > 49153 [RST|ACK] Seq=0 Ack=1 Win=65535)
- 6.00001 /NodeList/3/DeviceList/2/$ns3::PointToPointNetDevice/TxQueue/Dequeue ns3::PppHeader (Point-to-Point Protocol: IP (0x0021)) ns3::Ipv4Header (tos 0x0 DSCP Default ECN Not-ECT ttl 64 id 1 protocol 6 offset (bytes) 0 flags [none] length: 40 10.10.3.1 > 10.10.3.2) ns3::TcpHeader (2300 > 49153 [RST|ACK] Seq=0 Ack=1 Win=65535)
r 12 /NodeList/3/DeviceList/2/$ns3::PointToPointNetDevice/MacRx ns3::PppHeader (Point-to-Point Protocol: IP (0x0021)) ns3::Ipv4Header (tos 0x0 DSCP Default ECN Not-ECT ttl 64 id 2 protocol 6 offset (bytes) 0 flags [none] length: 56 10.10.3.2 > 10.10.3.1) ns3::TcpHeader (49153 > 2300 [SYN] Seq=0 Ack=0 Win=65535 ns3::TcpOptionTS(12000;0) ns3::TcpOptionWinScale(2) ns3::TcpOptionSackPermitted([sack_perm]) ns3::TcpOptionEnd(EOL))
+ 12 /NodeList/3/DeviceList/2/$ns3::PointToPointNetDevice/TxQueue/Enqueue ns3::PppHeader (Point-to-Point Protocol: IP (0x0021)) ns3::Ipv4Header (tos 0x0 DSCP Default ECN Not-ECT ttl 64 id 2 protocol 6 offset (bytes) 0 flags [none] length: 56 10.10.3.1 > 10.10.3.2) ns3::TcpHeader (2300 > 49153 [SYN|ACK] Seq=0 Ack=1 Win=65535 ns3::TcpOptionTS(12000;12000) ns3::TcpOptionWinScale(2) ns3::TcpOptionSackPermitted([sack_perm]) ns3::TcpOptionEnd(EOL))
- 12 /NodeList/3/DeviceList/2/$ns3::PointToPointNetDevice/TxQueue/Dequeue ns3::PppHeader (Point-to-Point Protocol: IP (0x0021)) ns3::Ipv4Header (tos 0x0 DSCP Default ECN Not-ECT ttl 64 id 2 protocol 6 offset (bytes) 0 flags [none] length: 56 10.10.3.1 > 10.10.3.2) ns3::TcpHeader (2300 > 49153 [SYN|ACK] Seq=0 Ack=1 Win=65535 ns3::TcpOptionTS(12000;12000) ns3::TcpOptionWinScale(2) ns3::TcpOptionSackPermitted([sack_perm]) ns3::TcpOptionEnd(EOL))
r 12 /NodeList/3/DeviceList/2/$ns3::PointToPointNetDevice/MacRx ns3::PppHeader (Point-to-Point Protocol: IP (0x0021)) ns3::Ipv4Header (tos 0x0 DSCP Default ECN Not-ECT ttl 64 id 3 protocol 6 offset (bytes) 0 flags [none] length: 52 10.10.3.2 > 10.10.3.1) ns3::TcpHeader (49153 > 2300 [ACK] Seq=1 Ack=1 Win=32768 ns3::TcpOptionTS(12000;12000) ns3::TcpOptionEnd(EOL))
r 12.0209 /NodeList/3/DeviceList/2/$ns3::PointToPointNetDevice/MacRx ns3::PppHeader (Point-to-Point Protocol: IP (0x0021)) ns3::Ipv4Header (tos 0x0 DSCP Default ECN Not-ECT ttl 64 id 4 protocol 6 offset (bytes) 0 flags [none] length: 588 10.10.3.2 > 10.10.3.1) ns3::TcpHeader (49153 > 2300 [ACK] Seq=1 Ack=1 Win=32768 ns3::TcpOptionTS(12020;12000) ns3::TcpOptionEnd(EOL)) Payload Fragment [0:536]
+ 12.0209 /NodeList/3/DeviceList/2/$ns3::PointToPointNetDevice/TxQueue/Enqueue ns3::PppHeader (Point-to-Point Protocol: IP (0x0021)) ns3::Ipv4Header (tos 0x0 DSCP Default ECN Not-ECT ttl 64 id 3 protocol 6 offset (bytes) 0 flags [none] length: 52 10.10.3.1 > 10.10.3.2) ns3::TcpHeader (2300 > 49153 [ACK] Seq=1 Ack=537 Win=32768 ns3::TcpOptionTS(12020;12020) ns3::TcpOptionEnd(EOL))
- 12.0209 /NodeList/3/DeviceList/2/$ns3::PointToPointNetDevice/TxQueue/Dequeue ns3::PppHeader (Point-to-Point Protocol: IP (0x0021)) ns3::Ipv4Header (tos 0x0 DSCP Default ECN Not-ECT ttl 64 id 3 protocol 6 offset (bytes) 0 flags [none] length: 52 10.10.3.1 > 10.10.3.2) ns3::TcpHeader (2300 > 49153 [ACK] Seq=1 Ack=537 Win=32768 ns3::TcpOptionTS(12020;12020) ns3::TcpOptionEnd(EOL))
r 12.0209 /NodeList/3/DeviceList/2/$ns3::PointToPointNetDevice/MacRx ns3::PppHeader (Point-to-Point Protocol: IP (0x0021)) ns3::Ipv4Header (tos 0x0 DSCP Default ECN Not-ECT ttl 64 id 5 protocol 6 offset (bytes) 0 flags [none] length: 588 10.10.3.2 > 10.10.3.1) ns3::TcpHeader (49153 > 2300 [ACK] Seq=537 Ack=1 Win=32768 ns3::TcpOptionTS(12020;12000) ns3::TcpOptionEnd(EOL)) Payload Fragment [536:1072]
r 12.021 /NodeList/3/DeviceList/2/$ns3::PointToPointNetDevice/MacRx ns3::PppHeader (Point-to-Point Protocol: IP (0x0021)) ns3::Ipv4Header (tos 0x0 DSCP Default ECN Not-ECT ttl 64 id 6 protocol 6 offset (bytes) 0 flags [none] length: 280 10.10.3.2 > 10.10.3.1) ns3::TcpHeader (49153 > 2300 [ACK] Seq=1073 Ack=1 Win=32768 ns3::TcpOptionTS(12020;12000) ns3::TcpOptionEnd(EOL)) Payload Fragment [1072:1300]
+ 12.021 /NodeList/3/DeviceList/2/$ns3::PointToPointNetDevice/TxQueue/Enqueue ns3::PppHeader (Point-to-Point Protocol: IP (0x0021)) ns3::Ipv4Header (tos 0x0 DSCP Default ECN Not-ECT ttl 64 id 4 protocol 6 offset (bytes) 0 flags [none] length: 52 10.10.3.1 > 10.10.3.2) ns3::TcpHeader (2300 > 49153 [ACK] Seq=1 Ack=1301 Win=32768 ns3::TcpOptionTS(12020;12020) ns3::TcpOptionEnd(EOL))
- 12.021 /NodeList/3/DeviceList/2/$ns3::PointToPointNetDevice/TxQueue/Dequeue ns3::PppHeader (Point-to-Point Protocol: IP (0x0021)) ns3::Ipv4Header (tos 0x0 DSCP Default ECN Not-ECT ttl 64 id 4 protocol 6 offset (bytes) 0 flags [none] length: 52 10.10.3.1 > 10.10.3.2) ns3::TcpHeader (2300 > 49153 [ACK] Seq=1 Ack=1301 Win=32768 ns3::TcpOptionTS(12020;12020) ns3::TcpOptionEnd(EOL))
r 12.0417 /NodeList/3/DeviceList/2/$ns3::PointToPointNetDevice/MacRx ns3::PppHeader (Point-to-Point Protocol: IP (0x0021)) ns3::Ipv4Header (tos 0x0 DSCP Default ECN Not-ECT ttl 64 id 7 protocol 6 offset (bytes) 0 flags [none] length: 588 10.10.3.2 > 10.10.3.1) ns3::TcpHeader (49153 > 2300 [ACK] Seq=1301 Ack=1 Win=32768 ns3::TcpOptionTS(12041;12020) ns3::TcpOptionEnd(EOL)) Payload Fragment [0:536]
r 12.0417 /NodeList/3/DeviceList/2/$ns3::PointToPointNetDevice/MacRx ns3::PppHeader (Point-to-Point Protocol: IP (0x0021)) ns3::Ipv4Header (tos 0x0 DSCP Default ECN Not-ECT ttl 64 id 8 protocol 6 offset (bytes) 0 flags [none] length: 588 10.10.3.2 > 10.10.3.1) ns3::TcpHeader (49153 > 2300 [ACK] Seq=1837 Ack=1 Win=32768 ns3::TcpOptionTS(12041;12020) ns3::TcpOptionEnd(EOL)) Payload Fragment [536:1072]
+ 12.0417 /NodeList/3/DeviceList/2/$ns3::PointToPointNetDevice/TxQueue/Enqueue ns3::PppHeader (Point-to-Point Protocol: IP (0x0021)) ns3::Ipv4Header (tos 0x0 DSCP Default ECN Not-ECT ttl 64 id 5 protocol 6 offset (bytes) 0 flags [none] length: 52 10.10.3.1 > 10.10.3.2) ns3::TcpHeader (2300 > 49153 [ACK] Seq=1 Ack=2373 Win=32768 ns3::TcpOptionTS(12041;12041) ns3::TcpOptionEnd(EOL))
- 12.0417 /NodeList/3/DeviceList/2/$ns3::PointToPointNetDevice/TxQueue/Dequeue ns3::PppHeader (Point-to-Point Protocol: IP (0x0021)) ns3::Ipv4Header (tos 0x0 DSCP Default ECN Not-ECT ttl 64 id 5 protocol 6 offset (bytes) 0 flags [none] length: 52 10.10.3.1 > 10.10.3.2) ns3::TcpHeader (2300 > 49153 [ACK] Seq=1 Ack=2373 Win=32768 ns3::TcpOptionTS(12041;12041) ns3::TcpOptionEnd(EOL))
r 12.0418 /NodeList/3/DeviceList/2/$ns3::PointToPointNetDevice/MacRx ns3::PppHeader (Point-to-Point Protocol: IP (0x0021)) ns3::Ipv4Header (tos 0x0 DSCP Default ECN Not-ECT ttl 64 id 9 protocol 6 offset (bytes) 0 flags [none] length: 280 10.10.3.2 > 10.10.3.1) ns3::TcpHeader (49153 > 2300 [ACK] Seq=2373 Ack=1 Win=32768 ns3::TcpOptionTS(12041;12020) ns3::TcpOptionEnd(EOL)) Payload Fragment [1072:1300]
r 12.0625 /NodeList/3/DeviceList/2/$ns3::PointToPointNetDevice/MacRx ns3::PppHeader (Point-to-Point Protocol: IP (0x0021)) ns3::Ipv4Header (tos 0x0 DSCP Default ECN Not-ECT ttl 64 id 10 protocol 6 offset (bytes) 0 flags [none] length: 588 10.10.3.2 > 10.10.3.1) ns3::TcpHeader (49153 > 2300 [ACK] Seq=2601 Ack=1 Win=32768 ns3::TcpOptionTS(12062;12041) ns3::TcpOptionEnd(EOL)) Payload Fragment [0:536]
+ 12.0625 /NodeList/3/DeviceList/2/$ns3::PointToPointNetDevice/TxQueue/Enqueue ns3::PppHeader (Point-to-Point Protocol: IP (0x0021)) ns3::Ipv4Header (tos 0x0 DSCP Default ECN Not-ECT ttl 64 id 6 protocol 6 offset (bytes) 0 flags [none] length: 52 10.10.3.1 > 10.10.3.2) ns3::TcpHeader (2300 > 49153 [ACK] Seq=1 Ack=3137 Win=32768 ns3::TcpOptionTS(12062;12041) ns3::TcpOptionEnd(EOL))
- 12.0625 /NodeList/3/DeviceList/2/$ns3::PointToPointNetDevice/TxQueue/Dequeue ns3::PppHeader (Point-to-Point Protocol: IP (0x0021)) ns3::Ipv4Header (tos 0x0 DSCP Default ECN Not-ECT ttl 64 id 6 protocol 6 offset (bytes) 0 flags [none] length: 52 10.10.3.1 > 10.10.3.2) ns3::TcpHeader (2300 > 49153 [ACK] Seq=1 Ack=3137 Win=32768 ns3::TcpOptionTS(12062;12041) ns3::TcpOptionEnd(EOL))
r 12.0625 /NodeList/3/DeviceList/2/$ns3::PointToPointNetDevice/MacRx ns3::PppHeader (Point-to-Point Protocol: IP (0x0021)) ns3::Ipv4Header (tos 0x0 DSCP Default ECN Not-ECT ttl 64 id 11 protocol 6 offset (bytes) 0 flags [none] length: 588 10.10.3.2 > 10.10.3.1) ns3::TcpHeader (49153 > 2300 [ACK] Seq=3137 Ack=1 Win=32768 ns3::TcpOptionTS(12062;12041) ns3::TcpOptionEnd(EOL)) Payload Fragment [536:1072]
r 12.0626 /NodeList/3/DeviceList/2/$ns3::PointToPointNetDevice/MacRx ns3::PppHeader (Point-to-Point Protocol: IP (0x0021)) ns3::Ipv4Header (tos 0x0 DSCP Default ECN Not-ECT ttl 64 id 12 protocol 6 offset (bytes) 0 flags [none] length: 280 10.10.3.2 > 10.10.3.1) ns3::TcpHeader (49153 > 2300 [ACK] Seq=3673 Ack=1 Win=32768 ns3::TcpOptionTS(12062;12041) ns3::TcpOptionEnd(EOL)) Payload Fragment [1072:1300]
+ 12.0626 /NodeList/3/DeviceList/2/$ns3::PointToPointNetDevice/TxQueue/Enqueue ns3::PppHeader (Point-to-Point Protocol: IP (0x0021)) ns3::Ipv4Header (tos 0x0 DSCP Default ECN Not-ECT ttl 64 id 7 protocol 6 offset (bytes) 0 flags [none] length: 52 10.10.3.1 > 10.10.3.2) ns3::TcpHeader (2300 > 49153 [ACK] Seq=1 Ack=3901 Win=32768 ns3::TcpOptionTS(12062;12062) ns3::TcpOptionEnd(EOL))
- 12.0626 /NodeList/3/DeviceList/2/$ns3::PointToPointNetDevice/TxQueue/Dequeue ns3::PppHeader (Point-to-Point Protocol: IP (0x0021)) ns3::Ipv4Header (tos 0x0 DSCP Default ECN Not-ECT ttl 64 id 7 protocol 6 offset (bytes) 0 flags [none] length: 52 10.10.3.1 > 10.10.3.2) ns3::TcpHeader (2300 > 49153 [ACK] Seq=1 Ack=3901 Win=32768 ns3::TcpOptionTS(12062;12062) ns3::TcpOptionEnd(EOL))
r 12.0833 /NodeList/3/DeviceList/2/$ns3::PointToPointNetDevice/MacRx ns3::PppHeader (Point-to-Point Protocol: IP (0x0021)) ns3::Ipv4Header (tos 0x0 DSCP Default ECN Not-ECT ttl 64 id 13 protocol 6 offset (bytes) 0 flags [none] length: 588 10.10.3.2 > 10.10.3.1) ns3::TcpHeader (49153 > 2300 [ACK] Seq=3901 Ack=1 Win=32768 ns3::TcpOptionTS(12083;12062) ns3::TcpOptionEnd(EOL)) Payload Fragment [0:536]
r 12.0833 /NodeList/3/DeviceList/2/$ns3::PointToPointNetDevice/MacRx ns3::PppHeader (Point-to-Point Protocol: IP (0x0021)) ns3::Ipv4Header (tos 0x0 DSCP Default ECN Not-ECT ttl 64 id 14 protocol 6 offset (bytes) 0 flags [none] length: 588 10.10.3.2 > 10.10.3.1) ns3::TcpHeader (49153 > 2300 [ACK] Seq=4437 Ack=1 Win=32768 ns3::TcpOptionTS(12083;12062) ns3::TcpOptionEnd(EOL)) Payload Fragment [536:1072]
+ 12.0833 /NodeList/3/DeviceList/2/$ns3::PointToPointNetDevice/TxQueue/Enqueue ns3::PppHeader (Point-to-Point Protocol: IP (0x0021)) ns3::Ipv4Header (tos 0x0 DSCP Default ECN Not-ECT ttl 64 id 8 protocol 6 offset (bytes) 0 flags [none] length: 52 10.10.3.1 > 10.10.3.2) ns3::TcpHeader (2300 > 49153 [ACK] Seq=1 Ack=4973 Win=32768 ns3::TcpOptionTS(12083;12083) ns3::TcpOptionEnd(EOL))
- 12.0833 /NodeList/3/DeviceList/2/$ns3::PointToPointNetDevice/TxQueue/Dequeue ns3::PppHeader (Point-to-Point Protocol: IP (0x0021)) ns3::Ipv4Header (tos 0x0 DSCP Default ECN Not-ECT ttl 64 id 8 protocol 6 offset (bytes) 0 flags [none] length: 52 10.10.3.1 > 10.10.3.2) ns3::TcpHeader (2300 > 49153 [ACK] Seq=1 Ack=4973 Win=32768 ns3::TcpOptionTS(12083;12083) ns3::TcpOptionEnd(EOL))
r 12.0834 /NodeList/3/DeviceList/2/$ns3::PointToPointNetDevice/MacRx ns3::PppHeader (Point-to-Point Protocol: IP (0x0021)) ns3::Ipv4Header (tos 0x0 DSCP Default ECN Not-ECT ttl 64 id 15 protocol 6 offset (bytes) 0 flags [none] length: 280 10.10.3.2 > 10.10.3.1) ns3::TcpHeader (49153 > 2300 [ACK] Seq=4973 Ack=1 Win=32768 ns3::TcpOptionTS(12083;12062) ns3::TcpOptionEnd(EOL)) Payload Fragment [1072:1300]
r 12.1041 /NodeList/3/DeviceList/2/$ns3::PointToPointNetDevice/MacRx ns3::PppHeader (Point-to-Point Protocol: IP (0x0021)) ns3::Ipv4Header (tos 0x0 DSCP Default ECN Not-ECT ttl 64 id 16 protocol 6 offset (bytes) 0 flags [none] length: 588 10.10.3.2 > 10.10.3.1) ns3::TcpHeader (49153 > 2300 [ACK] Seq=5201 Ack=1 Win=32768 ns3::TcpOptionTS(12104;12083) ns3::TcpOptionEnd(EOL)) Payload Fragment [0:536]
+ 12.1041 /NodeList/3/DeviceList/2/$ns3::PointToPointNetDevice/TxQueue/Enqueue ns3::PppHeader (Point-to-Point Protocol: IP (0x0021)) ns3::Ipv4Header (tos 0x0 DSCP Default ECN Not-ECT ttl 64 id 9 protocol 6 offset (bytes) 0 flags [none] length: 52 10.10.3.1 > 10.10.3.2) ns3::TcpHeader (2300 > 49153 [ACK] Seq=1 Ack=5737 Win=32768 ns3::TcpOptionTS(12104;12083) ns3::TcpOptionEnd(EOL))
- 12.1041 /NodeList/3/DeviceList/2/$ns3::PointToPointNetDevice/TxQueue/Dequeue ns3::PppHeader (Point-to-Point Protocol: IP (0x0021)) ns3::Ipv4Header (tos 0x0 DSCP Default ECN Not-ECT ttl 64 id 9 protocol 6 offset (bytes) 0 flags [none] length: 52 10.10.3.1 > 10.10.3.2) ns3::TcpHeader (2300 > 49153 [ACK] Seq=1 Ack=5737 Win=32768 ns3::TcpOptionTS(12104;12083) ns3::TcpOptionEnd(EOL))
r 12.1041 /NodeList/3/DeviceList/2/$ns3::PointToPointNetDevice/MacRx ns3::PppHeader (Point-to-Point Protocol: IP (0x0021)) ns3::Ipv4Header (tos 0x0 DSCP Default ECN Not-ECT ttl 64 id 17 protocol 6 offset (bytes) 0 flags [none] length: 588 10.10.3.2 > 10.10.3.1) ns3::TcpHeader (49153 > 2300 [ACK] Seq=5737 Ack=1 Win=32768 ns3::TcpOptionTS(12104;12083) ns3::TcpOptionEnd(EOL)) Payload Fragment [536:1072]
r 12.1042 /NodeList/3/DeviceList/2/$ns3::PointToPointNetDevice/MacRx ns3::PppHeader (Point-to-Point Protocol: IP (0x0021)) ns3::Ipv4Header (tos 0x0 DSCP Default ECN Not-ECT ttl 64 id 18 protocol 6 offset (bytes) 0 flags [none] length: 280 10.10.3.2 > 10.10.3.1) ns3::TcpHeader (49153 > 2300 [ACK] Seq=6273 Ack=1 Win=32768 ns3::TcpOptionTS(12104;12083) ns3::TcpOptionEnd(EOL)) Payload Fragment [1072:1300]
+ 12.1042 /NodeList/3/DeviceList/2/$ns3::PointToPointNetDevice/TxQueue/Enqueue ns3::PppHeader (Point-to-Point Protocol: IP (0x0021)) ns3::Ipv4Header (tos 0x0 DSCP Default ECN Not-ECT ttl 64 id 10 protocol 6 offset (bytes) 0 flags [none] length: 52 10.10.3.1 > 10.10.3.2) ns3::TcpHeader (2300 > 49153 [ACK] Seq=1 Ack=6501 Win=32768 ns3::TcpOptionTS(12104;12104) ns3::TcpOptionEnd(EOL))
- 12.1042 /NodeList/3/DeviceList/2/$ns3::PointToPointNetDevice/TxQueue/Dequeue ns3::PppHeader (Point-to-Point Protocol: IP (0x0021)) ns3::Ipv4Header (tos 0x0 DSCP Default ECN Not-ECT ttl 64 id 10 protocol 6 offset (bytes) 0 flags [none] length: 52 10.10.3.1 > 10.10.3.2) ns3::TcpHeader (2300 > 49153 [ACK] Seq=1 Ack=6501 Win=32768 ns3::TcpOptionTS(12104;12104) ns3::TcpOptionEnd(EOL))
r 12.1249 /NodeList/3/DeviceList/2/$ns3::PointToPointNetDevice/MacRx ns3::PppHeader (Point-to-Point Protocol: IP (0x0021)) ns3::Ipv4Header (tos 0x0 DSCP Default ECN Not-ECT ttl 64 id 19 protocol 6 offset (bytes) 0 flags [none] length: 588 10.10.3.2 > 10.10.3.1) ns3::TcpHeader (49153 > 2300 [ACK] Seq=6501 Ack=1 Win=32768 ns3::TcpOptionTS(12124;12104) ns3::TcpOptionEnd(EOL)) Payload Fragment [0:536]
r 12.1249 /NodeList/3/DeviceList/2/$ns3::PointToPointNetDevice/MacRx ns3::PppHeader (Point-to-Point Protocol: IP (0x0021)) ns3::Ipv4Header (tos 0x0 DSCP Default ECN Not-ECT ttl 64 id 20 protocol 6 offset (bytes) 0 flags [none] length: 588 10.10.3.2 > 10.10.3.1) ns3::TcpHeader (49153 > 2300 [ACK] Seq=7037 Ack=1 Win=32768 ns3::TcpOptionTS(12124;12104) ns3::TcpOptionEnd(EOL)) Payload Fragment [536:1072]
+ 12.1249 /NodeList/3/DeviceList/2/$ns3::PointToPointNetDevice/TxQueue/Enqueue ns3::PppHeader (Point-to-Point Protocol: IP (0x0021)) ns3::Ipv4Header (tos 0x0 DSCP Default ECN Not-ECT ttl 64 id 11 protocol 6 offset (bytes) 0 flags [none] length: 52 10.10.3.1 > 10.10.3.2) ns3::TcpHeader (2300 > 49153 [ACK] Seq=1 Ack=7573 Win=32768 ns3::TcpOptionTS(12124;12124) ns3::TcpOptionEnd(EOL))
- 12.1249 /NodeList/3/DeviceList/2/$ns3::PointToPointNetDevice/TxQueue/Dequeue ns3::PppHeader (Point-to-Point Protocol: IP (0x0021)) ns3::Ipv4Header (tos 0x0 DSCP Default ECN Not-ECT ttl 64 id 11 protocol 6 offset (bytes) 0 flags [none] length: 52 10.10.3.1 > 10.10.3.2) ns3::TcpHeader (2300 > 49153 [ACK] Seq=1 Ack=7573 Win=32768 ns3::TcpOptionTS(12124;12124) ns3::TcpOptionEnd(EOL))
r 12.125 /NodeList/3/DeviceList/2/$ns3::PointToPointNetDevice/MacRx ns3::PppHeader (Point-to-Point Protocol: IP (0x0021)) ns3::Ipv4Header (tos 0x0 DSCP Default ECN Not-ECT ttl 64 id 21 protocol 6 offset (bytes) 0 flags [none] length: 280 10.10.3.2 > 10.10.3.1) ns3::TcpHeader (49153 > 2300 [ACK] Seq=7573 Ack=1 Win=32768 ns3::TcpOptionTS(12124;12104) ns3::TcpOptionEnd(EOL)) Payload Fragment [1072:1300]
r 12.1457 /NodeList/3/DeviceList/2/$ns3::PointToPointNetDevice/MacRx ns3::PppHeader (Point-to-Point Protocol: IP (0x0021)) ns3::Ipv4Header (tos 0x0 DSCP Default ECN Not-ECT ttl 64 id 22 protocol 6 offset (bytes) 0 flags [none] length: 588 10.10.3.2 > 10.10.3.1) ns3::TcpHeader (49153 > 2300 [ACK] Seq=7801 Ack=1 Win=32768 ns3::TcpOptionTS(12145;12124) ns3::TcpOptionEnd(EOL)) Payload Fragment [0:536]
+ 12.1457 /NodeList/3/DeviceList/2/$ns3::PointToPointNetDevice/TxQueue/Enqueue ns3::PppHeader (Point-to-Point Protocol: IP (0x0021)) ns3::Ipv4Header (tos 0x0 DSCP Default ECN Not-ECT ttl 64 id 12 protocol 6 offset (bytes) 0 flags [none] length: 52 10.10.3.1 > 10.10.3.2) ns3::TcpHeader (2300 > 49153 [ACK] Seq=1 Ack=8337 Win=32768 ns3::TcpOptionTS(12145;12124) ns3::TcpOptionEnd(EOL))
- 12.1457 /NodeList/3/DeviceList/2/$ns3::PointToPointNetDevice/TxQueue/Dequeue ns3::PppHeader (Point-to-Point Protocol: IP (0x0021)) ns3::Ipv4Header (tos 0x0 DSCP Default ECN Not-ECT ttl 64 id 12 protocol 6 offset (bytes) 0 flags [none] length: 52 10.10.3.1 > 10.10.3.2) ns3::TcpHeader (2300 > 49153 [ACK] Seq=1 Ack=8337 Win=32768 ns3::TcpOptionTS(12145;12124) ns3::TcpOptionEnd(EOL))
r 12.1457 /NodeList/3/DeviceList/2/$ns3::PointToPointNetDevice/MacRx ns3::PppHeader (Point-to-Point Protocol: IP (0x0021)) ns3::Ipv4Header (tos 0x0 DSCP Default ECN Not-ECT ttl 64 id 23 protocol 6 offset (bytes) 0 flags [none] length: 588 10.10.3.2 > 10.10.3.1) ns3::TcpHeader (49153 > 2300 [ACK] Seq=8337 Ack=1 Win=32768 ns3::TcpOptionTS(12145;12124) ns3::TcpOptionEnd(EOL)) Payload Fragment [536:1072]
r 12.1458 /NodeList/3/DeviceList/2/$ns3::PointToPointNetDevice/MacRx ns3::PppHeader (Point-to-Point Protocol: IP (0x0021)) ns3::Ipv4Header (tos 0x0 DSCP Default ECN Not-ECT ttl 64 id 24 protocol 6 offset (bytes) 0 flags [none] length: 280 10.10.3.2 > 10.10.3.1) ns3::TcpHeader (49153 > 2300 [ACK] Seq=8873 Ack=1 Win=32768 ns3::TcpOptionTS(12145;12124) ns3::TcpOptionEnd(EOL)) Payload Fragment [1072:1300]
+ 12.1458 /NodeList/3/DeviceList/2/$ns3::PointToPointNetDevice/TxQueue/Enqueue ns3::PppHeader (Point-to-Point Protocol: IP (0x0021)) ns3::Ipv4Header (tos 0x0 DSCP Default ECN Not-ECT ttl 64 id 13 protocol 6 offset (bytes) 0 flags [none] length: 52 10.10.3.1 > 10.10.3.2) ns3::TcpHeader (2300 > 49153 [ACK] Seq=1 Ack=9101 Win=32768 ns3::TcpOptionTS(12145;12145) ns3::TcpOptionEnd(EOL))
- 12.1458 /NodeList/3/DeviceList/2/$ns3::PointToPointNetDevice/TxQueue/Dequeue ns3::PppHeader (Point-to-Point Protocol: IP (0x0021)) ns3::Ipv4Header (tos 0x0 DSCP Default ECN Not-ECT ttl 64 id 13 protocol 6 offset (bytes) 0 flags [none] length: 52 10.10.3.1 > 10.10.3.2) ns3::TcpHeader (2300 > 49153 [ACK] Seq=1 Ack=9101 Win=32768 ns3::TcpOptionTS(12145;12145) ns3::TcpOptionEnd(EOL))
r 12.1665 /NodeList/3/DeviceList/2/$ns3::PointToPointNetDevice/MacRx ns3::PppHeader (Point-to-Point Protocol: IP (0x0021)) ns3::Ipv4Header (tos 0x0 DSCP Default ECN Not-ECT ttl 64 id 25 protocol 6 offset (bytes) 0 flags [none] length: 588 10.10.3.2 > 10.10.3.1) ns3::TcpHeader (49153 > 2300 [ACK] Seq=9101 Ack=1 Win=32768 ns3::TcpOptionTS(12166;12145) ns3::TcpOptionEnd(EOL)) Payload Fragment [0:536]
r 12.1665 /NodeList/3/DeviceList/2/$ns3::PointToPointNetDevice/MacRx ns3::PppHeader (Point-to-Point Protocol: IP (0x0021)) ns3::Ipv4Header (tos 0x0 DSCP Default ECN Not-ECT ttl 64 id 26 protocol 6 offset (bytes) 0 flags [none] length: 588 10.10.3.2 > 10.10.3.1) ns3::TcpHeader (49153 > 2300 [ACK] Seq=9637 Ack=1 Win=32768 ns3::TcpOptionTS(12166;12145) ns3::TcpOptionEnd(EOL)) Payload Fragment [536:1072]
+ 12.1665 /NodeList/3/DeviceList/2/$ns3::PointToPointNetDevice/TxQueue/Enqueue ns3::PppHeader (Point-to-Point Protocol: IP (0x0021)) ns3::Ipv4Header (tos 0x0 DSCP Default ECN Not-ECT ttl 64 id 14 protocol 6 offset (bytes) 0 flags [none] length: 52 10.10.3.1 > 10.10.3.2) ns3::TcpHeader (2300 > 49153 [ACK] Seq=1 Ack=10173 Win=32768 ns3::TcpOptionTS(12166;12166) ns3::TcpOptionEnd(EOL))
- 12.1665 /NodeList/3/DeviceList/2/$ns3::PointToPointNetDevice/TxQueue/Dequeue ns3::PppHeader (Point-to-Point Protocol: IP (0x0021)) ns3::Ipv4Header (tos 0x0 DSCP Default ECN Not-ECT ttl 64 id 14 protocol 6 offset (bytes) 0 flags [none] length: 52 10.10.3.1 > 10.10.3.2) ns3::TcpHeader (2300 > 49153 [ACK] Seq=1 Ack=10173 Win=32768 ns3::TcpOptionTS(12166;12166) ns3::TcpOptionEnd(EOL))
r 12.1666 /NodeList/3/DeviceList/2/$ns3::PointToPointNetDevice/MacRx ns3::PppHeader (Point-to-Point Protocol: IP (0x0021)) ns3::Ipv4Header (tos 0x0 DSCP Default ECN Not-ECT ttl 64 id 27 protocol 6 offset (bytes) 0 flags [none] length: 280 10.10.3.2 > 10.10.3.1) ns3::TcpHeader (49153 > 2300 [ACK] Seq=10173 Ack=1 Win=32768 ns3::TcpOptionTS(12166;12145) ns3::TcpOptionEnd(EOL)) Payload Fragment [1072:1300]
r 12.1873 /NodeList/3/DeviceList/2/$ns3::PointToPointNetDevice/MacRx ns3::PppHeader (Point-to-Point Protocol: IP (0x0021)) ns3::Ipv4Header (tos 0x0 DSCP Default ECN Not-ECT ttl 64 id 28 protocol 6 offset (bytes) 0 flags [none] length: 588 10.10.3.2 > 10.10.3.1) ns3::TcpHeader (49153 > 2300 [ACK] Seq=10401 Ack=1 Win=32768 ns3::TcpOptionTS(12187;12166) ns3::TcpOptionEnd(EOL)) Payload Fragment [0:536]
+ 12.1873 /NodeList/3/DeviceList/2/$ns3::PointToPointNetDevice/TxQueue/Enqueue ns3::PppHeader (Point-to-Point Protocol: IP (0x0021)) ns3::Ipv4Header (tos 0x0 DSCP Default ECN Not-ECT ttl 64 id 15 protocol 6 offset (bytes) 0 flags [none] length: 52 10.10.3.1 > 10.10.3.2) ns3::TcpHeader (2300 > 49153 [ACK] Seq=1 Ack=10937 Win=32768 ns3::TcpOptionTS(12187;12166) ns3::TcpOptionEnd(EOL))
- 12.1873 /NodeList/3/DeviceList/2/$ns3::PointToPointNetDevice/TxQueue/Dequeue ns3::PppHeader (Point-to-Point Protocol: IP (0x0021)) ns3::Ipv4Header (tos 0x0 DSCP Default ECN Not-ECT ttl 64 id 15 protocol 6 offset (bytes) 0 flags [none] length: 52 10.10.3.1 > 10.10.3.2) ns3::TcpHeader (2300 > 49153 [ACK] Seq=1 Ack=10937 Win=32768 ns3::TcpOptionTS(12187;12166) ns3::TcpOptionEnd(EOL))
r 12.1873 /NodeList/3/DeviceList/2/$ns3::PointToPointNetDevice/MacRx ns3::PppHeader (Point-to-Point Protocol: IP (0x0021)) ns3::Ipv4Header (tos 0x0 DSCP Default ECN Not-ECT ttl 64 id 29 protocol 6 offset (bytes) 0 flags [none] length: 588 10.10.3.2 > 10.10.3.1) ns3::TcpHeader (49153 > 2300 [ACK] Seq=10937 Ack=1 Win=32768 ns3::TcpOptionTS(12187;12166) ns3::TcpOptionEnd(EOL)) Payload Fragment [536:1072]
r 12.1874 /NodeList/3/DeviceList/2/$ns3::PointToPointNetDevice/MacRx ns3::PppHeader (Point-to-Point Protocol: IP (0x0021)) ns3::Ipv4Header (tos 0x0 DSCP Default ECN Not-ECT ttl 64 id 30 protocol 6 offset (bytes) 0 flags [none] length: 280 10.10.3.2 > 10.10.3.1) ns3::TcpHeader (49153 > 2300 [ACK] Seq=11473 Ack=1 Win=32768 ns3::TcpOptionTS(12187;12166) ns3::TcpOptionEnd(EOL)) Payload Fragment [1072:1300]
+ 12.1874 /NodeList/3/DeviceList/2/$ns3::PointToPointNetDevice/TxQueue/Enqueue ns3::PppHeader (Point-to-Point Protocol: IP (0x0021)) ns3::Ipv4Header (tos 0x0 DSCP Default ECN Not-ECT ttl 64 id 16 protocol 6 offset (bytes) 0 flags [none] length: 52 10.10.3.1 > 10.10.3.2) ns3::TcpHeader (2300 > 49153 [ACK] Seq=1 Ack=11701 Win=32768 ns3::TcpOptionTS(12187;12187) ns3::TcpOptionEnd(EOL))
- 12.1874 /NodeList/3/DeviceList/2/$ns3::PointToPointNetDevice/TxQueue/Dequeue ns3::PppHeader (Point-to-Point Protocol: IP (0x0021)) ns3::Ipv4Header (tos 0x0 DSCP Default ECN Not-ECT ttl 64 id 16 protocol 6 offset (bytes) 0 flags [none] length: 52 10.10.3.1 > 10.10.3.2) ns3::TcpHeader (2300 > 49153 [ACK] Seq=1 Ack=11701 Win=32768 ns3::TcpOptionTS(12187;12187) ns3::TcpOptionEnd(EOL))
r 12.2081 /NodeList/3/DeviceList/2/$ns3::PointToPointNetDevice/MacRx ns3::PppHeader (Point-to-Point Protocol: IP (0x0021)) ns3::Ipv4Header (tos 0x0 DSCP Default ECN Not-ECT ttl 64 id 31 protocol 6 offset (bytes) 0 flags [none] length: 588 10.10.3.2 > 10.10.3.1) ns3::TcpHeader (49153 > 2300 [ACK] Seq=11701 Ack=1 Win=32768 ns3::TcpOptionTS(12208;12187) ns3::TcpOptionEnd(EOL)) Payload Fragment [0:536]
r 12.2081 /NodeList/3/DeviceList/2/$ns3::PointToPointNetDevice/MacRx ns3::PppHeader (Point-to-Point Protocol: IP (0x0021)) ns3::Ipv4Header (tos 0x0 DSCP Default ECN Not-ECT ttl 64 id 32 protocol 6 offset (bytes) 0 flags [none] length: 588 10.10.3.2 > 10.10.3.1) ns3::TcpHeader (49153 > 2300 [ACK] Seq=12237 Ack=1 Win=32768 ns3::TcpOptionTS(12208;12187) ns3::TcpOptionEnd(EOL)) Payload Fragment [536:1072]
+ 12.2081 /NodeList/3/DeviceList/2/$ns3::PointToPointNetDevice/TxQueue/Enqueue ns3::PppHeader (Point-to-Point Protocol: IP (0x0021)) ns3::Ipv4Header (tos 0x0 DSCP Default ECN Not-ECT ttl 64 id 17 protocol 6 offset (bytes) 0 flags [none] length: 52 10.10.3.1 > 10.10.3.2) ns3::TcpHeader (2300 > 49153 [ACK] Seq=1 Ack=12773 Win=32768 ns3::TcpOptionTS(12208;12208) ns3::TcpOptionEnd(EOL))
- 12.2081 /NodeList/3/DeviceList/2/$ns3::PointToPointNetDevice/TxQueue/Dequeue ns3::PppHeader (Point-to-Point Protocol: IP (0x0021)) ns3::Ipv4Header (tos 0x0 DSCP Default ECN Not-ECT ttl 64 id 17 protocol 6 offset (bytes) 0 flags [none] length: 52 10.10.3.1 > 10.10.3.2) ns3::TcpHeader (2300 > 49153 [ACK] Seq=1 Ack=12773 Win=32768 ns3::TcpOptionTS(12208;12208) ns3::TcpOptionEnd(EOL))
r 12.2082 /NodeList/3/DeviceList/2/$ns3::PointToPointNetDevice/MacRx ns3::PppHeader (Point-to-Point Protocol: IP (0x0021)) ns3::Ipv4Header (tos 0x0 DSCP Default ECN Not-ECT ttl 64 id 33 protocol 6 offset (bytes) 0 flags [none] length: 280 10.10.3.2 > 10.10.3.1) ns3::TcpHeader (49153 > 2300 [ACK] Seq=12773 Ack=1 Win=32768 ns3::TcpOptionTS(12208;12187) ns3::TcpOptionEnd(EOL)) Payload Fragment [1072:1300]
r 12.2289 /NodeList/3/DeviceList/2/$ns3::PointToPointNetDevice/MacRx ns3::PppHeader (Point-to-Point Protocol: IP (0x0021)) ns3::Ipv4Header (tos 0x0 DSCP Default ECN Not-ECT ttl 64 id 34 protocol 6 offset (bytes) 0 flags [none] length: 588 10.10.3.2 > 10.10.3.1) ns3::TcpHeader (49153 > 2300 [ACK] Seq=13001 Ack=1 Win=32768 ns3::TcpOptionTS(12228;12208) ns3::TcpOptionEnd(EOL)) Payload Fragment [0:536]
+ 12.2289 /NodeList/3/DeviceList/2/$ns3::PointToPointNetDevice/TxQueue/Enqueue ns3::PppHeader (Point-to-Point Protocol: IP (0x0021)) ns3::Ipv4Header (tos 0x0 DSCP Default ECN Not-ECT ttl 64 id 18 protocol 6 offset (bytes) 0 flags [none] length: 52 10.10.3.1 > 10.10.3.2) ns3::TcpHeader (2300 > 49153 [ACK] Seq=1 Ack=13537 Win=32768 ns3::TcpOptionTS(12228;12208) ns3::TcpOptionEnd(EOL))
- 12.2289 /NodeList/3/DeviceList/2/$ns3::PointToPointNetDevice/TxQueue/Dequeue ns3::PppHeader (Point-to-Point Protocol: IP (0x0021)) ns3::Ipv4Header (tos 0x0 DSCP Default ECN Not-ECT ttl 64 id 18 protocol 6 offset (bytes) 0 flags [none] length: 52 10.10.3.1 > 10.10.3.2) ns3::TcpHeader (2300 > 49153 [ACK] Seq=1 Ack=13537 Win=32768 ns3::TcpOptionTS(12228;12208) ns3::TcpOptionEnd(EOL))
r 12.2289 /NodeList/3/DeviceList/2/$ns3::PointToPointNetDevice/MacRx ns3::PppHeader (Point-to-Point Protocol: IP (0x0021)) ns3::Ipv4Header (tos 0x0 DSCP Default ECN Not-ECT ttl 64 id 35 protocol 6 offset (bytes) 0 flags [none] length: 588 10.10.3.2 > 10.10.3.1) ns3::TcpHeader (49153 > 2300 [ACK] Seq=13537 Ack=1 Win=32768 ns3::TcpOptionTS(12228;12208) ns3::TcpOptionEnd(EOL)) Payload Fragment [536:1072]
r 12.229 /NodeList/3/DeviceList/2/$ns3::PointToPointNetDevice/MacRx ns3::PppHeader (Point-to-Point Protocol: IP (0x0021)) ns3::Ipv4Header (tos 0x0 DSCP Default ECN Not-ECT ttl 64 id 36 protocol 6 offset (bytes) 0 flags [none] length: 280 10.10.3.2 > 10.10.3.1) ns3::TcpHeader (49153 > 2300 [ACK] Seq=14073 Ack=1 Win=32768 ns3::TcpOptionTS(12228;12208) ns3::TcpOptionEnd(EOL)) Payload Fragment [1072:1300]
+ 12.229 /NodeList/3/DeviceList/2/$ns3::PointToPointNetDevice/TxQueue/Enqueue ns3::PppHeader (Point-to-Point Protocol: IP (0x0021)) ns3::Ipv4Header (tos 0x0 DSCP Default ECN Not-ECT ttl 64 id 19 protocol 6 offset (bytes) 0 flags [none] length: 52 10.10.3.1 > 10.10.3.2) ns3::TcpHeader (2300 > 49153 [ACK] Seq=1 Ack=14301 Win=32768 ns3::TcpOptionTS(12228;12228) ns3::TcpOptionEnd(EOL))