r 3.00001 /NodeList/3/DeviceList/2/$ns3::PointToPointNetDevice/MacRx ns3::PppHeader (Point-to-Point Protocol: IP (0x0021)) ns3::Ipv4Header (tos 0x0 DSCP Default ECN Not-ECT ttl 64 id 0 protocol 6 offset (bytes) 0 flags [none] length: 56 10.10.3.2 > 10.10.3.1) ns3::TcpHeader (49153 > 2300 [SYN] Seq=0 Ack=0 Win=65535 ns3::TcpOptionTS(3000;0) ns3::TcpOptionWinScale(2) ns3::TcpOptionSackPermitted([sack_perm]) ns3::TcpOptionEnd(EOL))
+ 3.00001 /NodeList/3/DeviceList/2/$ns3::PointToPointNetDevice/TxQueue/Enqueue ns3::PppHeader (Point-to-Point Protocol: IP (0x0021)) ns3::Ipv4Header (tos 0x0 DSCP Default ECN Not-ECT ttl 64 id 0 protocol 6 offset (bytes) 0 flags [none] length: 56 10.10.3.1 > 10.10.3.2) ns3::TcpHeader (2300 > 49153 [SYN|ACK] Seq=0 Ack=1 Win=65535 ns3::TcpOptionTS(3000;3000) ns3::TcpOptionWinScale(2) ns3::TcpOptionSackPermitted([sack_perm]) ns3::TcpOptionEnd(EOL))
- 3.00001 /NodeList/3/DeviceList/2/$ns3::PointToPointNetDevice/TxQueue/Dequeue ns3::PppHeader (Point-to-Point Protocol: IP (0x0021)) ns3::Ipv4Header (tos 0x0 DSCP Default ECN Not-ECT ttl 64 id 0 protocol 6 offset (bytes) 0 flags [none] length: 56 10.10.3.1 > 10.10.3.2) ns3::TcpHeader (2300 > 49153 [SYN|ACK] Seq=0 Ack=1 Win=65535 ns3::TcpOptionTS(3000;3000) ns3::TcpOptionWinScale(2) ns3::TcpOptionSackPermitted([sack_perm]) ns3::TcpOptionEnd(EOL))
r 3.00003 /NodeList/3/DeviceList/2/$ns3::PointToPointNetDevice/MacRx ns3::PppHeader (Point-to-Point Protocol: IP (0x0021)) ns3::Ipv4Header (tos 0x0 DSCP Default ECN Not-ECT ttl 64 id 1 protocol 6 offset (bytes) 0 flags [none] length: 52 10.10.3.2 > 10.10.3.1) ns3::TcpHeader (49153 > 2300 [ACK] Seq=1 Ack=1 Win=32768 ns3::TcpOptionTS(3000;3000) ns3::TcpOptionEnd(EOL))
r 3.04809 /NodeList/3/DeviceList/2/$ns3::PointToPointNetDevice/MacRx ns3::PppHeader (Point-to-Point Protocol: IP (0x0021)) ns3::Ipv4Header (tos 0x0 DSCP Default ECN Not-ECT ttl 64 id 2 protocol 6 offset (bytes) 0 flags [none] length: 588 10.10.3.2 > 10.10.3.1) ns3::TcpHeader (49153 > 2300 [ACK] Seq=1 Ack=1 Win=32768 ns3::TcpOptionTS(3048;3000) ns3::TcpOptionEnd(EOL)) Payload Fragment [0:536]
+ 3.04809 /NodeList/3/DeviceList/2/$ns3::PointToPointNetDevice/TxQueue/Enqueue ns3::PppHeader (Point-to-Point Protocol: IP (0x0021)) ns3::Ipv4Header (tos 0x0 DSCP Default ECN Not-ECT ttl 64 id 1 protocol 6 offset (bytes) 0 flags [none] length: 52 10.10.3.1 > 10.10.3.2) ns3::TcpHeader (2300 > 49153 [ACK] Seq=1 Ack=537 Win=32768 ns3::TcpOptionTS(3048;3048) ns3::TcpOptionEnd(EOL))
- 3.04809 /NodeList/3/DeviceList/2/$ns3::PointToPointNetDevice/TxQueue/Dequeue ns3::PppHeader (Point-to-Point Protocol: IP (0x0021)) ns3::Ipv4Header (tos 0x0 DSCP Default ECN Not-ECT ttl 64 id 1 protocol 6 offset (bytes) 0 flags [none] length: 52 10.10.3.1 > 10.10.3.2) ns3::TcpHeader (2300 > 49153 [ACK] Seq=1 Ack=537 Win=32768 ns3::TcpOptionTS(3048;3048) ns3::TcpOptionEnd(EOL))
r 3.04814 /NodeList/3/DeviceList/2/$ns3::PointToPointNetDevice/MacRx ns3::PppHeader (Point-to-Point Protocol: IP (0x0021)) ns3::Ipv4Header (tos 0x0 DSCP Default ECN Not-ECT ttl 64 id 3 protocol 6 offset (bytes) 0 flags [none] length: 588 10.10.3.2 > 10.10.3.1) ns3::TcpHeader (49153 > 2300 [ACK] Seq=537 Ack=1 Win=32768 ns3::TcpOptionTS(3048;3000) ns3::TcpOptionEnd(EOL)) Payload Fragment [536:1072]
r 3.0482 /NodeList/3/DeviceList/2/$ns3::PointToPointNetDevice/MacRx ns3::PppHeader (Point-to-Point Protocol: IP (0x0021)) ns3::Ipv4Header (tos 0x0 DSCP Default ECN Not-ECT ttl 64 id 4 protocol 6 offset (bytes) 0 flags [none] length: 588 10.10.3.2 > 10.10.3.1) ns3::TcpHeader (49153 > 2300 [ACK] Seq=1073 Ack=1 Win=32768 ns3::TcpOptionTS(3048;3000) ns3::TcpOptionEnd(EOL)) Payload Fragment [1072:1608]
+ 3.0482 /NodeList/3/DeviceList/2/$ns3::PointToPointNetDevice/TxQueue/Enqueue ns3::PppHeader (Point-to-Point Protocol: IP (0x0021)) ns3::Ipv4Header (tos 0x0 DSCP Default ECN Not-ECT ttl 64 id 2 protocol 6 offset (bytes) 0 flags [none] length: 52 10.10.3.1 > 10.10.3.2) ns3::TcpHeader (2300 > 49153 [ACK] Seq=1 Ack=1609 Win=32768 ns3::TcpOptionTS(3048;3048) ns3::TcpOptionEnd(EOL))
- 3.0482 /NodeList/3/DeviceList/2/$ns3::PointToPointNetDevice/TxQueue/Dequeue ns3::PppHeader (Point-to-Point Protocol: IP (0x0021)) ns3::Ipv4Header (tos 0x0 DSCP Default ECN Not-ECT ttl 64 id 2 protocol 6 offset (bytes) 0 flags [none] length: 52 10.10.3.1 > 10.10.3.2) ns3::TcpHeader (2300 > 49153 [ACK] Seq=1 Ack=1609 Win=32768 ns3::TcpOptionTS(3048;3048) ns3::TcpOptionEnd(EOL))
r 3.04826 /NodeList/3/DeviceList/2/$ns3::PointToPointNetDevice/MacRx ns3::PppHeader (Point-to-Point Protocol: IP (0x0021)) ns3::Ipv4Header (tos 0x0 DSCP Default ECN Not-ECT ttl 64 id 5 protocol 6 offset (bytes) 0 flags [none] length: 588 10.10.3.2 > 10.10.3.1) ns3::TcpHeader (49153 > 2300 [ACK] Seq=1609 Ack=1 Win=32768 ns3::TcpOptionTS(3048;3000) ns3::TcpOptionEnd(EOL)) Payload Fragment [1608:2144]
r 3.04832 /NodeList/3/DeviceList/2/$ns3::PointToPointNetDevice/MacRx ns3::PppHeader (Point-to-Point Protocol: IP (0x0021)) ns3::Ipv4Header (tos 0x0 DSCP Default ECN Not-ECT ttl 64 id 6 protocol 6 offset (bytes) 0 flags [none] length: 588 10.10.3.2 > 10.10.3.1) ns3::TcpHeader (49153 > 2300 [ACK] Seq=2145 Ack=1 Win=32768 ns3::TcpOptionTS(3048;3000) ns3::TcpOptionEnd(EOL)) Payload Fragment [2144:2680]
+ 3.04832 /NodeList/3/DeviceList/2/$ns3::PointToPointNetDevice/TxQueue/Enqueue ns3::PppHeader (Point-to-Point Protocol: IP (0x0021)) ns3::Ipv4Header (tos 0x0 DSCP Default ECN Not-ECT ttl 64 id 3 protocol 6 offset (bytes) 0 flags [none] length: 52 10.10.3.1 > 10.10.3.2) ns3::TcpHeader (2300 > 49153 [ACK] Seq=1 Ack=2681 Win=32768 ns3::TcpOptionTS(3048;3048) ns3::TcpOptionEnd(EOL))
- 3.04832 /NodeList/3/DeviceList/2/$ns3::PointToPointNetDevice/TxQueue/Dequeue ns3::PppHeader (Point-to-Point Protocol: IP (0x0021)) ns3::Ipv4Header (tos 0x0 DSCP Default ECN Not-ECT ttl 64 id 3 protocol 6 offset (bytes) 0 flags [none] length: 52 10.10.3.1 > 10.10.3.2) ns3::TcpHeader (2300 > 49153 [ACK] Seq=1 Ack=2681 Win=32768 ns3::TcpOptionTS(3048;3048) ns3::TcpOptionEnd(EOL))
r 3.04836 /NodeList/3/DeviceList/2/$ns3::PointToPointNetDevice/MacRx ns3::PppHeader (Point-to-Point Protocol: IP (0x0021)) ns3::Ipv4Header (tos 0x0 DSCP Default ECN Not-ECT ttl 64 id 7 protocol 6 offset (bytes) 0 flags [none] length: 372 10.10.3.2 > 10.10.3.1) ns3::TcpHeader (49153 > 2300 [ACK] Seq=2681 Ack=1 Win=32768 ns3::TcpOptionTS(3048;3000) ns3::TcpOptionEnd(EOL)) Payload Fragment [2680:3000]
r 3.09609 /NodeList/3/DeviceList/2/$ns3::PointToPointNetDevice/MacRx ns3::PppHeader (Point-to-Point Protocol: IP (0x0021)) ns3::Ipv4Header (tos 0x0 DSCP Default ECN Not-ECT ttl 64 id 8 protocol 6 offset (bytes) 0 flags [none] length: 588 10.10.3.2 > 10.10.3.1) ns3::TcpHeader (49153 > 2300 [ACK] Seq=3001 Ack=1 Win=32768 ns3::TcpOptionTS(3096;3048) ns3::TcpOptionEnd(EOL)) Payload Fragment [0:536]
+ 3.09609 /NodeList/3/DeviceList/2/$ns3::PointToPointNetDevice/TxQueue/Enqueue ns3::PppHeader (Point-to-Point Protocol: IP (0x0021)) ns3::Ipv4Header (tos 0x0 DSCP Default ECN Not-ECT ttl 64 id 4 protocol 6 offset (bytes) 0 flags [none] length: 52 10.10.3.1 > 10.10.3.2) ns3::TcpHeader (2300 > 49153 [ACK] Seq=1 Ack=3537 Win=32768 ns3::TcpOptionTS(3096;3048) ns3::TcpOptionEnd(EOL))
- 3.09609 /NodeList/3/DeviceList/2/$ns3::PointToPointNetDevice/TxQueue/Dequeue ns3::PppHeader (Point-to-Point Protocol: IP (0x0021)) ns3::Ipv4Header (tos 0x0 DSCP Default ECN Not-ECT ttl 64 id 4 protocol 6 offset (bytes) 0 flags [none] length: 52 10.10.3.1 > 10.10.3.2) ns3::TcpHeader (2300 > 49153 [ACK] Seq=1 Ack=3537 Win=32768 ns3::TcpOptionTS(3096;3048) ns3::TcpOptionEnd(EOL))
r 3.09614 /NodeList/3/DeviceList/2/$ns3::PointToPointNetDevice/MacRx ns3::PppHeader (Point-to-Point Protocol: IP (0x0021)) ns3::Ipv4Header (tos 0x0 DSCP Default ECN Not-ECT ttl 64 id 9 protocol 6 offset (bytes) 0 flags [none] length: 588 10.10.3.2 > 10.10.3.1) ns3::TcpHeader (49153 > 2300 [ACK] Seq=3537 Ack=1 Win=32768 ns3::TcpOptionTS(3096;3048) ns3::TcpOptionEnd(EOL)) Payload Fragment [536:1072]
r 3.0962 /NodeList/3/DeviceList/2/$ns3::PointToPointNetDevice/MacRx ns3::PppHeader (Point-to-Point Protocol: IP (0x0021)) ns3::Ipv4Header (tos 0x0 DSCP Default ECN Not-ECT ttl 64 id 10 protocol 6 offset (bytes) 0 flags [none] length: 588 10.10.3.2 > 10.10.3.1) ns3::TcpHeader (49153 > 2300 [ACK] Seq=4073 Ack=1 Win=32768 ns3::TcpOptionTS(3096;3048) ns3::TcpOptionEnd(EOL)) Payload Fragment [1072:1608]
+ 3.0962 /NodeList/3/DeviceList/2/$ns3::PointToPointNetDevice/TxQueue/Enqueue ns3::PppHeader (Point-to-Point Protocol: IP (0x0021)) ns3::Ipv4Header (tos 0x0 DSCP Default ECN Not-ECT ttl 64 id 5 protocol 6 offset (bytes) 0 flags [none] length: 52 10.10.3.1 > 10.10.3.2) ns3::TcpHeader (2300 > 49153 [ACK] Seq=1 Ack=4609 Win=32768 ns3::TcpOptionTS(3096;3096) ns3::TcpOptionEnd(EOL))
- 3.0962 /NodeList/3/DeviceList/2/$ns3::PointToPointNetDevice/TxQueue/Dequeue ns3::PppHeader (Point-to-Point Protocol: IP (0x0021)) ns3::Ipv4Header (tos 0x0 DSCP Default ECN Not-ECT ttl 64 id 5 protocol 6 offset (bytes) 0 flags [none] length: 52 10.10.3.1 > 10.10.3.2) ns3::TcpHeader (2300 > 49153 [ACK] Seq=1 Ack=4609 Win=32768 ns3::TcpOptionTS(3096;3096) ns3::TcpOptionEnd(EOL))
r 3.09626 /NodeList/3/DeviceList/2/$ns3::PointToPointNetDevice/MacRx ns3::PppHeader (Point-to-Point Protocol: IP (0x0021)) ns3::Ipv4Header (tos 0x0 DSCP Default ECN Not-ECT ttl 64 id 11 protocol 6 offset (bytes) 0 flags [none] length: 588 10.10.3.2 > 10.10.3.1) ns3::TcpHeader (49153 > 2300 [ACK] Seq=4609 Ack=1 Win=32768 ns3::TcpOptionTS(3096;3048) ns3::TcpOptionEnd(EOL)) Payload Fragment [1608:2144]
r 3.09632 /NodeList/3/DeviceList/2/$ns3::PointToPointNetDevice/MacRx ns3::PppHeader (Point-to-Point Protocol: IP (0x0021)) ns3::Ipv4Header (tos 0x0 DSCP Default ECN Not-ECT ttl 64 id 12 protocol 6 offset (bytes) 0 flags [none] length: 588 10.10.3.2 > 10.10.3.1) ns3::TcpHeader (49153 > 2300 [ACK] Seq=5145 Ack=1 Win=32768 ns3::TcpOptionTS(3096;3048) ns3::TcpOptionEnd(EOL)) Payload Fragment [2144:2680]
+ 3.09632 /NodeList/3/DeviceList/2/$ns3::PointToPointNetDevice/TxQueue/Enqueue ns3::PppHeader (Point-to-Point Protocol: IP (0x0021)) ns3::Ipv4Header (tos 0x0 DSCP Default ECN Not-ECT ttl 64 id 6 protocol 6 offset (bytes) 0 flags [none] length: 52 10.10.3.1 > 10.10.3.2) ns3::TcpHeader (2300 > 49153 [ACK] Seq=1 Ack=5681 Win=32768 ns3::TcpOptionTS(3096;3096) ns3::TcpOptionEnd(EOL))
- 3.09632 /NodeList/3/DeviceList/2/$ns3::PointToPointNetDevice/TxQueue/Dequeue ns3::PppHeader (Point-to-Point Protocol: IP (0x0021)) ns3::Ipv4Header (tos 0x0 DSCP Default ECN Not-ECT ttl 64 id 6 protocol 6 offset (bytes) 0 flags [none] length: 52 10.10.3.1 > 10.10.3.2) ns3::TcpHeader (2300 > 49153 [ACK] Seq=1 Ack=5681 Win=32768 ns3::TcpOptionTS(3096;3096) ns3::TcpOptionEnd(EOL))
r 3.09636 /NodeList/3/DeviceList/2/$ns3::PointToPointNetDevice/MacRx ns3::PppHeader (Point-to-Point Protocol: IP (0x0021)) ns3::Ipv4Header (tos 0x0 DSCP Default ECN Not-ECT ttl 64 id 13 protocol 6 offset (bytes) 0 flags [none] length: 372 10.10.3.2 > 10.10.3.1) ns3::TcpHeader (49153 > 2300 [ACK] Seq=5681 Ack=1 Win=32768 ns3::TcpOptionTS(3096;3048) ns3::TcpOptionEnd(EOL)) Payload Fragment [2680:3000]
r 3.14409 /NodeList/3/DeviceList/2/$ns3::PointToPointNetDevice/MacRx ns3::PppHeader (Point-to-Point Protocol: IP (0x0021)) ns3::Ipv4Header (tos 0x0 DSCP Default ECN Not-ECT ttl 64 id 14 protocol 6 offset (bytes) 0 flags [none] length: 588 10.10.3.2 > 10.10.3.1) ns3::TcpHeader (49153 > 2300 [ACK] Seq=6001 Ack=1 Win=32768 ns3::TcpOptionTS(3144;3096) ns3::TcpOptionEnd(EOL)) Payload Fragment [0:536]
+ 3.14409 /NodeList/3/DeviceList/2/$ns3::PointToPointNetDevice/TxQueue/Enqueue ns3::PppHeader (Point-to-Point Protocol: IP (0x0021)) ns3::Ipv4Header (tos 0x0 DSCP Default ECN Not-ECT ttl 64 id 7 protocol 6 offset (bytes) 0 flags [none] length: 52 10.10.3.1 > 10.10.3.2) ns3::TcpHeader (2300 > 49153 [ACK] Seq=1 Ack=6537 Win=32768 ns3::TcpOptionTS(3144;3096) ns3::TcpOptionEnd(EOL))
- 3.14409 /NodeList/3/DeviceList/2/$ns3::PointToPointNetDevice/TxQueue/Dequeue ns3::PppHeader (Point-to-Point Protocol: IP (0x0021)) ns3::Ipv4Header (tos 0x0 DSCP Default ECN Not-ECT ttl 64 id 7 protocol 6 offset (bytes) 0 flags [none] length: 52 10.10.3.1 > 10.10.3.2) ns3::TcpHeader (2300 > 49153 [ACK] Seq=1 Ack=6537 Win=32768 ns3::TcpOptionTS(3144;3096) ns3::TcpOptionEnd(EOL))
r 3.14414 /NodeList/3/DeviceList/2/$ns3::PointToPointNetDevice/MacRx ns3::PppHeader (Point-to-Point Protocol: IP (0x0021)) ns3::Ipv4Header (tos 0x0 DSCP Default ECN Not-ECT ttl 64 id 15 protocol 6 offset (bytes) 0 flags [none] length: 588 10.10.3.2 > 10.10.3.1) ns3::TcpHeader (49153 > 2300 [ACK] Seq=6537 Ack=1 Win=32768 ns3::TcpOptionTS(3144;3096) ns3::TcpOptionEnd(EOL)) Payload Fragment [536:1072]
r 3.1442 /NodeList/3/DeviceList/2/$ns3::PointToPointNetDevice/MacRx ns3::PppHeader (Point-to-Point Protocol: IP (0x0021)) ns3::Ipv4Header (tos 0x0 DSCP Default ECN Not-ECT ttl 64 id 16 protocol 6 offset (bytes) 0 flags [none] length: 588 10.10.3.2 > 10.10.3.1) ns3::TcpHeader (49153 > 2300 [ACK] Seq=7073 Ack=1 Win=32768 ns3::TcpOptionTS(3144;3096) ns3::TcpOptionEnd(EOL)) Payload Fragment [1072:1608]
+ 3.1442 /NodeList/3/DeviceList/2/$ns3::PointToPointNetDevice/TxQueue/Enqueue ns3::PppHeader (Point-to-Point Protocol: IP (0x0021)) ns3::Ipv4Header (tos 0x0 DSCP Default ECN Not-ECT ttl 64 id 8 protocol 6 offset (bytes) 0 flags [none] length: 52 10.10.3.1 > 10.10.3.2) ns3::TcpHeader (2300 > 49153 [ACK] Seq=1 Ack=7609 Win=32768 ns3::TcpOptionTS(3144;3144) ns3::TcpOptionEnd(EOL))
- 3.1442 /NodeList/3/DeviceList/2/$ns3::PointToPointNetDevice/TxQueue/Dequeue ns3::PppHeader (Point-to-Point Protocol: IP (0x0021)) ns3::Ipv4Header (tos 0x0 DSCP Default ECN Not-ECT ttl 64 id 8 protocol 6 offset (bytes) 0 flags [none] length: 52 10.10.3.1 > 10.10.3.2) ns3::TcpHeader (2300 > 49153 [ACK] Seq=1 Ack=7609 Win=32768 ns3::TcpOptionTS(3144;3144) ns3::TcpOptionEnd(EOL))
r 3.14426 /NodeList/3/DeviceList/2/$ns3::PointToPointNetDevice/MacRx ns3::PppHeader (Point-to-Point Protocol: IP (0x0021)) ns3::Ipv4Header (tos 0x0 DSCP Default ECN Not-ECT ttl 64 id 17 protocol 6 offset (bytes) 0 flags [none] length: 588 10.10.3.2 > 10.10.3.1) ns3::TcpHeader (49153 > 2300 [ACK] Seq=7609 Ack=1 Win=32768 ns3::TcpOptionTS(3144;3096) ns3::TcpOptionEnd(EOL)) Payload Fragment [1608:2144]
r 3.14432 /NodeList/3/DeviceList/2/$ns3::PointToPointNetDevice/MacRx ns3::PppHeader (Point-to-Point Protocol: IP (0x0021)) ns3::Ipv4Header (tos 0x0 DSCP Default ECN Not-ECT ttl 64 id 18 protocol 6 offset (bytes) 0 flags [none] length: 588 10.10.3.2 > 10.10.3.1) ns3::TcpHeader (49153 > 2300 [ACK] Seq=8145 Ack=1 Win=32768 ns3::TcpOptionTS(3144;3096) ns3::TcpOptionEnd(EOL)) Payload Fragment [2144:2680]
+ 3.14432 /NodeList/3/DeviceList/2/$ns3::PointToPointNetDevice/TxQueue/Enqueue ns3::PppHeader (Point-to-Point Protocol: IP (0x0021)) ns3::Ipv4Header (tos 0x0 DSCP Default ECN Not-ECT ttl 64 id 9 protocol 6 offset (bytes) 0 flags [none] length: 52 10.10.3.1 > 10.10.3.2) ns3::TcpHeader (2300 > 49153 [ACK] Seq=1 Ack=8681 Win=32768 ns3::TcpOptionTS(3144;3144) ns3::TcpOptionEnd(EOL))
- 3.14432 /NodeList/3/DeviceList/2/$ns3::PointToPointNetDevice/TxQueue/Dequeue ns3::PppHeader (Point-to-Point Protocol: IP (0x0021)) ns3::Ipv4Header (tos 0x0 DSCP Default ECN Not-ECT ttl 64 id 9 protocol 6 offset (bytes) 0 flags [none] length: 52 10.10.3.1 > 10.10.3.2) ns3::TcpHeader (2300 > 49153 [ACK] Seq=1 Ack=8681 Win=32768 ns3::TcpOptionTS(3144;3144) ns3::TcpOptionEnd(EOL))
r 3.14436 /NodeList/3/DeviceList/2/$ns3::PointToPointNetDevice/MacRx ns3::PppHeader (Point-to-Point Protocol: IP (0x0021)) ns3::Ipv4Header (tos 0x0 DSCP Default ECN Not-ECT ttl 64 id 19 protocol 6 offset (bytes) 0 flags [none] length: 372 10.10.3.2 > 10.10.3.1) ns3::TcpHeader (49153 > 2300 [ACK] Seq=8681 Ack=1 Win=32768 ns3::TcpOptionTS(3144;3096) ns3::TcpOptionEnd(EOL)) Payload Fragment [2680:3000]
r 3.19209 /NodeList/3/DeviceList/2/$ns3::PointToPointNetDevice/MacRx ns3::PppHeader (Point-to-Point Protocol: IP (0x0021)) ns3::Ipv4Header (tos 0x0 DSCP Default ECN Not-ECT ttl 64 id 20 protocol 6 offset (bytes) 0 flags [none] length: 588 10.10.3.2 > 10.10.3.1) ns3::TcpHeader (49153 > 2300 [ACK] Seq=9001 Ack=1 Win=32768 ns3::TcpOptionTS(3192;3144) ns3::TcpOptionEnd(EOL)) Payload Fragment [0:536]
+ 3.19209 /NodeList/3/DeviceList/2/$ns3::PointToPointNetDevice/TxQueue/Enqueue ns3::PppHeader (Point-to-Point Protocol: IP (0x0021)) ns3::Ipv4Header (tos 0x0 DSCP Default ECN Not-ECT ttl 64 id 10 protocol 6 offset (bytes) 0 flags [none] length: 52 10.10.3.1 > 10.10.3.2) ns3::TcpHeader (2300 > 49153 [ACK] Seq=1 Ack=9537 Win=32768 ns3::TcpOptionTS(3192;3144) ns3::TcpOptionEnd(EOL))
- 3.19209 /NodeList/3/DeviceList/2/$ns3::PointToPointNetDevice/TxQueue/Dequeue ns3::PppHeader (Point-to-Point Protocol: IP (0x0021)) ns3::Ipv4Header (tos 0x0 DSCP Default ECN Not-ECT ttl 64 id 10 protocol 6 offset (bytes) 0 flags [none] length: 52 10.10.3.1 > 10.10.3.2) ns3::TcpHeader (2300 > 49153 [ACK] Seq=1 Ack=9537 Win=32768 ns3::TcpOptionTS(3192;3144) ns3::TcpOptionEnd(EOL))
r 3.19214 /NodeList/3/DeviceList/2/$ns3::PointToPointNetDevice/MacRx ns3::PppHeader (Point-to-Point Protocol: IP (0x0021)) ns3::Ipv4Header (tos 0x0 DSCP Default ECN Not-ECT ttl 64 id 21 protocol 6 offset (bytes) 0 flags [none] length: 588 10.10.3.2 > 10.10.3.1) ns3::TcpHeader (49153 > 2300 [ACK] Seq=9537 Ack=1 Win=32768 ns3::TcpOptionTS(3192;3144) ns3::TcpOptionEnd(EOL)) Payload Fragment [536:1072]
r 3.1922 /NodeList/3/DeviceList/2/$ns3::PointToPointNetDevice/MacRx ns3::PppHeader (Point-to-Point Protocol: IP (0x0021)) ns3::Ipv4Header (tos 0x0 DSCP Default ECN Not-ECT ttl 64 id 22 protocol 6 offset (bytes) 0 flags [none] length: 588 10.10.3.2 > 10.10.3.1) ns3::TcpHeader (49153 > 2300 [ACK] Seq=10073 Ack=1 Win=32768 ns3::TcpOptionTS(3192;3144) ns3::TcpOptionEnd(EOL)) Payload Fragment [1072:1608]
+ 3.1922 /NodeList/3/DeviceList/2/$ns3::PointToPointNetDevice/TxQueue/Enqueue ns3::PppHeader (Point-to-Point Protocol: IP (0x0021)) ns3::Ipv4Header (tos 0x0 DSCP Default ECN Not-ECT ttl 64 id 11 protocol 6 offset (bytes) 0 flags [none] length: 52 10.10.3.1 > 10.10.3.2) ns3::TcpHeader (2300 > 49153 [ACK] Seq=1 Ack=10609 Win=32768 ns3::TcpOptionTS(3192;3192) ns3::TcpOptionEnd(EOL))
- 3.1922 /NodeList/3/DeviceList/2/$ns3::PointToPointNetDevice/TxQueue/Dequeue ns3::PppHeader (Point-to-Point Protocol: IP (0x0021)) ns3::Ipv4Header (tos 0x0 DSCP Default ECN Not-ECT ttl 64 id 11 protocol 6 offset (bytes) 0 flags [none] length: 52 10.10.3.1 > 10.10.3.2) ns3::TcpHeader (2300 > 49153 [ACK] Seq=1 Ack=10609 Win=32768 ns3::TcpOptionTS(3192;3192) ns3::TcpOptionEnd(EOL))
r 3.19226 /NodeList/3/DeviceList/2/$ns3::PointToPointNetDevice/MacRx ns3::PppHeader (Point-to-Point Protocol: IP (0x0021)) ns3::Ipv4Header (tos 0x0 DSCP Default ECN Not-ECT ttl 64 id 23 protocol 6 offset (bytes) 0 flags [none] length: 588 10.10.3.2 > 10.10.3.1) ns3::TcpHeader (49153 > 2300 [ACK] Seq=10609 Ack=1 Win=32768 ns3::TcpOptionTS(3192;3144) ns3::TcpOptionEnd(EOL)) Payload Fragment [1608:2144]
r 3.19232 /NodeList/3/DeviceList/2/$ns3::PointToPointNetDevice/MacRx ns3::PppHeader (Point-to-Point Protocol: IP (0x0021)) ns3::Ipv4Header (tos 0x0 DSCP Default ECN Not-ECT ttl 64 id 24 protocol 6 offset (bytes) 0 flags [none] length: 588 10.10.3.2 > 10.10.3.1) ns3::TcpHeader (49153 > 2300 [ACK] Seq=11145 Ack=1 Win=32768 ns3::TcpOptionTS(3192;3144) ns3::TcpOptionEnd(EOL)) Payload Fragment [2144:2680]
+ 3.19232 /NodeList/3/DeviceList/2/$ns3::PointToPointNetDevice/TxQueue/Enqueue ns3::PppHeader (Point-to-Point Protocol: IP (0x0021)) ns3::Ipv4Header (tos 0x0 DSCP Default ECN Not-ECT ttl 64 id 12 protocol 6 offset (bytes) 0 flags [none] length: 52 10.10.3.1 > 10.10.3.2) ns3::TcpHeader (2300 > 49153 [ACK] Seq=1 Ack=11681 Win=32768 ns3::TcpOptionTS(3192;3192) ns3::TcpOptionEnd(EOL))
- 3.19232 /NodeList/3/DeviceList/2/$ns3::PointToPointNetDevice/TxQueue/Dequeue ns3::PppHeader (Point-to-Point Protocol: IP (0x0021)) ns3::Ipv4Header (tos 0x0 DSCP Default ECN Not-ECT ttl 64 id 12 protocol 6 offset (bytes) 0 flags [none] length: 52 10.10.3.1 > 10.10.3.2) ns3::TcpHeader (2300 > 49153 [ACK] Seq=1 Ack=11681 Win=32768 ns3::TcpOptionTS(3192;3192) ns3::TcpOptionEnd(EOL))
r 3.19236 /NodeList/3/DeviceList/2/$ns3::PointToPointNetDevice/MacRx ns3::PppHeader (Point-to-Point Protocol: IP (0x0021)) ns3::Ipv4Header (tos 0x0 DSCP Default ECN Not-ECT ttl 64 id 25 protocol 6 offset (bytes) 0 flags [none] length: 372 10.10.3.2 > 10.10.3.1) ns3::TcpHeader (49153 > 2300 [ACK] Seq=11681 Ack=1 Win=32768 ns3::TcpOptionTS(3192;3144) ns3::TcpOptionEnd(EOL)) Payload Fragment [2680:3000]
r 3.24009 /NodeList/3/DeviceList/2/$ns3::PointToPointNetDevice/MacRx ns3::PppHeader (Point-to-Point Protocol: IP (0x0021)) ns3::Ipv4Header (tos 0x0 DSCP Default ECN Not-ECT ttl 64 id 26 protocol 6 offset (bytes) 0 flags [none] length: 588 10.10.3.2 > 10.10.3.1) ns3::TcpHeader (49153 > 2300 [ACK] Seq=12001 Ack=1 Win=32768 ns3::TcpOptionTS(3240;3192) ns3::TcpOptionEnd(EOL)) Payload Fragment [0:536]
+ 3.24009 /NodeList/3/DeviceList/2/$ns3::PointToPointNetDevice/TxQueue/Enqueue ns3::PppHeader (Point-to-Point Protocol: IP (0x0021)) ns3::Ipv4Header (tos 0x0 DSCP Default ECN Not-ECT ttl 64 id 13 protocol 6 offset (bytes) 0 flags [none] length: 52 10.10.3.1 > 10.10.3.2) ns3::TcpHeader (2300 > 49153 [ACK] Seq=1 Ack=12537 Win=32768 ns3::TcpOptionTS(3240;3192) ns3::TcpOptionEnd(EOL))
- 3.24009 /NodeList/3/DeviceList/2/$ns3::PointToPointNetDevice/TxQueue/Dequeue ns3::PppHeader (Point-to-Point Protocol: IP (0x0021)) ns3::Ipv4Header (tos 0x0 DSCP Default ECN Not-ECT ttl 64 id 13 protocol 6 offset (bytes) 0 flags [none] length: 52 10.10.3.1 > 10.10.3.2) ns3::TcpHeader (2300 > 49153 [ACK] Seq=1 Ack=12537 Win=32768 ns3::TcpOptionTS(3240;3192) ns3::TcpOptionEnd(EOL))
r 3.24014 /NodeList/3/DeviceList/2/$ns3::PointToPointNetDevice/MacRx ns3::PppHeader (Point-to-Point Protocol: IP (0x0021)) ns3::Ipv4Header (tos 0x0 DSCP Default ECN Not-ECT ttl 64 id 27 protocol 6 offset (bytes) 0 flags [none] length: 588 10.10.3.2 > 10.10.3.1) ns3::TcpHeader (49153 > 2300 [ACK] Seq=12537 Ack=1 Win=32768 ns3::TcpOptionTS(3240;3192) ns3::TcpOptionEnd(EOL)) Payload Fragment [536:1072]
r 3.2402 /NodeList/3/DeviceList/2/$ns3::PointToPointNetDevice/MacRx ns3::PppHeader (Point-to-Point Protocol: IP (0x0021)) ns3::Ipv4Header (tos 0x0 DSCP Default ECN Not-ECT ttl 64 id 28 protocol 6 offset (bytes) 0 flags [none] length: 588 10.10.3.2 > 10.10.3.1) ns3::TcpHeader (49153 > 2300 [ACK] Seq=13073 Ack=1 Win=32768 ns3::TcpOptionTS(3240;3192) ns3::TcpOptionEnd(EOL)) Payload Fragment [1072:1608]
+ 3.2402 /NodeList/3/DeviceList/2/$ns3::PointToPointNetDevice/TxQueue/Enqueue ns3::PppHeader (Point-to-Point Protocol: IP (0x0021)) ns3::Ipv4Header (tos 0x0 DSCP Default ECN Not-ECT ttl 64 id 14 protocol 6 offset (bytes) 0 flags [none] length: 52 10.10.3.1 > 10.10.3.2) ns3::TcpHeader (2300 > 49153 [ACK] Seq=1 Ack=13609 Win=32768 ns3::TcpOptionTS(3240;3240) ns3::TcpOptionEnd(EOL))
- 3.2402 /NodeList/3/DeviceList/2/$ns3::PointToPointNetDevice/TxQueue/Dequeue ns3::PppHeader (Point-to-Point Protocol: IP (0x0021)) ns3::Ipv4Header (tos 0x0 DSCP Default ECN Not-ECT ttl 64 id 14 protocol 6 offset (bytes) 0 flags [none] length: 52 10.10.3.1 > 10.10.3.2) ns3::TcpHeader (2300 > 49153 [ACK] Seq=1 Ack=13609 Win=32768 ns3::TcpOptionTS(3240;3240) ns3::TcpOptionEnd(EOL))
r 3.24026 /NodeList/3/DeviceList/2/$ns3::PointToPointNetDevice/MacRx ns3::PppHeader (Point-to-Point Protocol: IP (0x0021)) ns3::Ipv4Header (tos 0x0 DSCP Default ECN Not-ECT ttl 64 id 29 protocol 6 offset (bytes) 0 flags [none] length: 588 10.10.3.2 > 10.10.3.1) ns3::TcpHeader (49153 > 2300 [ACK] Seq=13609 Ack=1 Win=32768 ns3::TcpOptionTS(3240;3192) ns3::TcpOptionEnd(EOL)) Payload Fragment [1608:2144]
r 3.24032 /NodeList/3/DeviceList/2/$ns3::PointToPointNetDevice/MacRx ns3::PppHeader (Point-to-Point Protocol: IP (0x0021)) ns3::Ipv4Header (tos 0x0 DSCP Default ECN Not-ECT ttl 64 id 30 protocol 6 offset (bytes) 0 flags [none] length: 588 10.10.3.2 > 10.10.3.1) ns3::TcpHeader (49153 > 2300 [ACK] Seq=14145 Ack=1 Win=32768 ns3::TcpOptionTS(3240;3192) ns3::TcpOptionEnd(EOL)) Payload Fragment [2144:2680]
+ 3.24032 /NodeList/3/DeviceList/2/$ns3::PointToPointNetDevice/TxQueue/Enqueue ns3::PppHeader (Point-to-Point Protocol: IP (0x0021)) ns3::Ipv4Header (tos 0x0 DSCP Default ECN Not-ECT ttl 64 id 15 protocol 6 offset (bytes) 0 flags [none] length: 52 10.10.3.1 > 10.10.3.2) ns3::TcpHeader (2300 > 49153 [ACK] Seq=1 Ack=14681 Win=32768 ns3::TcpOptionTS(3240;3240) ns3::TcpOptionEnd(EOL))
- 3.24032 /NodeList/3/DeviceList/2/$ns3::PointToPointNetDevice/TxQueue/Dequeue ns3::PppHeader (Point-to-Point Protocol: IP (0x0021)) ns3::Ipv4Header (tos 0x0 DSCP Default ECN Not-ECT ttl 64 id 15 protocol 6 offset (bytes) 0 flags [none] length: 52 10.10.3.1 > 10.10.3.2) ns3::TcpHeader (2300 > 49153 [ACK] Seq=1 Ack=14681 Win=32768 ns3::TcpOptionTS(3240;3240) ns3::TcpOptionEnd(EOL))
r 3.24036 /NodeList/3/DeviceList/2/$ns3::PointToPointNetDevice/MacRx ns3::PppHeader (Point-to-Point Protocol: IP (0x0021)) ns3::Ipv4Header (tos 0x0 DSCP Default ECN Not-ECT ttl 64 id 31 protocol 6 offset (bytes) 0 flags [none] length: 372 10.10.3.2 > 10.10.3.1) ns3::TcpHeader (49153 > 2300 [ACK] Seq=14681 Ack=1 Win=32768 ns3::TcpOptionTS(3240;3192) ns3::TcpOptionEnd(EOL)) Payload Fragment [2680:3000]
r 3.28809 /NodeList/3/DeviceList/2/$ns3::PointToPointNetDevice/MacRx ns3::PppHeader (Point-to-Point Protocol: IP (0x0021)) ns3::Ipv4Header (tos 0x0 DSCP Default ECN Not-ECT ttl 64 id 32 protocol 6 offset (bytes) 0 flags [none] length: 588 10.10.3.2 > 10.10.3.1) ns3::TcpHeader (49153 > 2300 [ACK] Seq=15001 Ack=1 Win=32768 ns3::TcpOptionTS(3288;3240) ns3::TcpOptionEnd(EOL)) Payload Fragment [0:536]
+ 3.28809 /NodeList/3/DeviceList/2/$ns3::PointToPointNetDevice/TxQueue/Enqueue ns3::PppHeader (Point-to-Point Protocol: IP (0x0021)) ns3::Ipv4Header (tos 0x0 DSCP Default ECN Not-ECT ttl 64 id 16 protocol 6 offset (bytes) 0 flags [none] length: 52 10.10.3.1 > 10.10.3.2) ns3::TcpHeader (2300 > 49153 [ACK] Seq=1 Ack=15537 Win=32768 ns3::TcpOptionTS(3288;3240) ns3::TcpOptionEnd(EOL))
- 3.28809 /NodeList/3/DeviceList/2/$ns3::PointToPointNetDevice/TxQueue/Dequeue ns3::PppHeader (Point-to-Point Protocol: IP (0x0021)) ns3::Ipv4Header (tos 0x0 DSCP Default ECN Not-ECT ttl 64 id 16 protocol 6 offset (bytes) 0 flags [none] length: 52 10.10.3.1 > 10.10.3.2) ns3::TcpHeader (2300 > 49153 [ACK] Seq=1 Ack=15537 Win=32768 ns3::TcpOptionTS(3288;3240) ns3::TcpOptionEnd(EOL))
r 3.28814 /NodeList/3/DeviceList/2/$ns3::PointToPointNetDevice/MacRx ns3::PppHeader (Point-to-Point Protocol: IP (0x0021)) ns3::Ipv4Header (tos 0x0 DSCP Default ECN Not-ECT ttl 64 id 33 protocol 6 offset (bytes) 0 flags [none] length: 588 10.10.3.2 > 10.10.3.1) ns3::TcpHeader (49153 > 2300 [ACK] Seq=15537 Ack=1 Win=32768 ns3::TcpOptionTS(3288;3240) ns3::TcpOptionEnd(EOL)) Payload Fragment [536:1072]
r 3.2882 /NodeList/3/DeviceList/2/$ns3::PointToPointNetDevice/MacRx ns3::PppHeader (Point-to-Point Protocol: IP (0x0021)) ns3::Ipv4Header (tos 0x0 DSCP Default ECN Not-ECT ttl 64 id 34 protocol 6 offset (bytes) 0 flags [none] length: 588 10.10.3.2 > 10.10.3.1) ns3::TcpHeader (49153 > 2300 [ACK] Seq=16073 Ack=1 Win=32768 ns3::TcpOptionTS(3288;3240) ns3::TcpOptionEnd(EOL)) Payload Fragment [1072:1608]
+ 3.2882 /NodeList/3/DeviceList/2/$ns3::PointToPointNetDevice/TxQueue/Enqueue ns3::PppHeader (Point-to-Point Protocol: IP (0x0021)) ns3::Ipv4Header (tos 0x0 DSCP Default ECN Not-ECT ttl 64 id 17 protocol 6 offset (bytes) 0 flags [none] length: 52 10.10.3.1 > 10.10.3.2) ns3::TcpHeader (2300 > 49153 [ACK] Seq=1 Ack=16609 Win=32768 ns3::TcpOptionTS(3288;3288) ns3::TcpOptionEnd(EOL))
- 3.2882 /NodeList/3/DeviceList/2/$ns3::PointToPointNetDevice/TxQueue/Dequeue ns3::PppHeader (Point-to-Point Protocol: IP (0x0021)) ns3::Ipv4Header (tos 0x0 DSCP Default ECN Not-ECT ttl 64 id 17 protocol 6 offset (bytes) 0 flags [none] length: 52 10.10.3.1 > 10.10.3.2) ns3::TcpHeader (2300 > 49153 [ACK] Seq=1 Ack=16609 Win=32768 ns3::TcpOptionTS(3288;3288) ns3::TcpOptionEnd(EOL))
r 3.28826 /NodeList/3/DeviceList/2/$ns3::PointToPointNetDevice/MacRx ns3::PppHeader (Point-to-Point Protocol: IP (0x0021)) ns3::Ipv4Header (tos 0x0 DSCP Default ECN Not-ECT ttl 64 id 35 protocol 6 offset (bytes) 0 flags [none] length: 588 10.10.3.2 > 10.10.3.1) ns3::TcpHeader (49153 > 2300 [ACK] Seq=16609 Ack=1 Win=32768 ns3::TcpOptionTS(3288;3240) ns3::TcpOptionEnd(EOL)) Payload Fragment [1608:2144]
r 3.28832 /NodeList/3/DeviceList/2/$ns3::PointToPointNetDevice/MacRx ns3::PppHeader (Point-to-Point Protocol: IP (0x0021)) ns3::Ipv4Header (tos 0x0 DSCP Default ECN Not-ECT ttl 64 id 36 protocol 6 offset (bytes) 0 flags [none] length: 588 10.10.3.2 > 10.10.3.1) ns3::TcpHeader (49153 > 2300 [ACK] Seq=17145 Ack=1 Win=32768 ns3::TcpOptionTS(3288;3240) ns3::TcpOptionEnd(EOL)) Payload Fragment [2144:2680]
+ 3.28832 /NodeList/3/DeviceList/2/$ns3::PointToPointNetDevice/TxQueue/Enqueue ns3::PppHeader (Point-to-Point Protocol: IP (0x0021)) ns3::Ipv4Header (tos 0x0 DSCP Default ECN Not-ECT ttl 64 id 18 protocol 6 offset (bytes) 0 flags [none] length: 52 10.10.3.1 > 10.10.3.2) ns3::TcpHeader (2300 > 49153 [ACK] Seq=1 Ack=17681 Win=32768 ns3::TcpOptionTS(3288;3288) ns3::TcpOptionEnd(EOL))
- 3.28832 /NodeList/3/DeviceList/2/$ns3::PointToPointNetDevice/TxQueue/Dequeue ns3::PppHeader (Point-to-Point Protocol: IP (0x0021)) ns3::Ipv4Header (tos 0x0 DSCP Default ECN Not-ECT ttl 64 id 18 protocol 6 offset (bytes) 0 flags [none] length: 52 10.10.3.1 > 10.10.3.2) ns3::TcpHeader (2300 > 49153 [ACK] Seq=1 Ack=17681 Win=32768 ns3::TcpOptionTS(3288;3288) ns3::TcpOptionEnd(EOL))
r 3.28836 /NodeList/3/DeviceList/2/$ns3::PointToPointNetDevice/MacRx ns3::PppHeader (Point-to-Point Protocol: IP (0x0021)) ns3::Ipv4Header (tos 0x0 DSCP Default ECN Not-ECT ttl 64 id 37 protocol 6 offset (bytes) 0 flags [none] length: 372 10.10.3.2 > 10.10.3.1) ns3::TcpHeader (49153 > 2300 [ACK] Seq=17681 Ack=1 Win=32768 ns3::TcpOptionTS(3288;3240) ns3::TcpOptionEnd(EOL)) Payload Fragment [2680:3000]